[Molden Format]
[Atoms] AU
  O     1    8     0.0000000000    0.0000000000   -2.2024593600        
  C     2    6     0.0000000000   -2.0802834200   -0.6649831500        
  C     3    6     0.0000000000    2.0802834200   -0.6649831500        
  C     4    6     0.0000000000   -1.2570207400    1.7897024000        
  C     5    6     0.0000000000    1.2570207400    1.7897024000        
  H     6    1     0.0000000000   -3.8984852700   -1.5908381000        
  H     7    1     0.0000000000    3.8984852700   -1.5908381000        
[5D7F]
[GTO]
  1  0
   s     9 1.00
  0.117200D+05  0.710000D-03
  0.175900D+04  0.547000D-02
  0.400800D+03  0.278370D-01
  0.113700D+03  0.104800D+00
  0.370300D+02  0.283062D+00
  0.132700D+02  0.448719D+00
  0.502500D+01  0.270952D+00
  0.101300D+01  0.154580D-01
  0.302300D+00 -0.258500D-02
   s     9 1.00
  0.117200D+05 -0.160000D-03
  0.175900D+04 -0.126300D-02
  0.400800D+03 -0.626700D-02
  0.113700D+03 -0.257160D-01
  0.370300D+02 -0.709240D-01
  0.132700D+02 -0.165411D+00
  0.502500D+01 -0.116955D+00
  0.101300D+01  0.557368D+00
  0.302300D+00  0.572759D+00
   s     1 1.00
  0.302300D+00  0.100000D+01
   p     4 1.00
  0.177000D+02  0.430180D-01
  0.385400D+01  0.228913D+00
  0.104600D+01  0.508728D+00
  0.275300D+00  0.460531D+00
   p     1 1.00
  0.275300D+00  0.100000D+01
   d     1 1.00
  0.118500D+01  0.100000D+01
  
  2  0
   s     9 1.00
  0.666500D+04  0.692000D-03
  0.100000D+04  0.532900D-02
  0.228000D+03  0.270770D-01
  0.647100D+02  0.101718D+00
  0.210600D+02  0.274740D+00
  0.749500D+01  0.448564D+00
  0.279700D+01  0.285074D+00
  0.521500D+00  0.152040D-01
  0.159600D+00 -0.319100D-02
   s     9 1.00
  0.666500D+04 -0.146000D-03
  0.100000D+04 -0.115400D-02
  0.228000D+03 -0.572500D-02
  0.647100D+02 -0.233120D-01
  0.210600D+02 -0.639550D-01
  0.749500D+01 -0.149981D+00
  0.279700D+01 -0.127262D+00
  0.521500D+00  0.544529D+00
  0.159600D+00  0.580496D+00
   s     1 1.00
  0.159600D+00  0.100000D+01
   p     4 1.00
  0.943900D+01  0.381090D-01
  0.200200D+01  0.209480D+00
  0.545600D+00  0.508557D+00
  0.151700D+00  0.468842D+00
   p     1 1.00
  0.151700D+00  0.100000D+01
   d     1 1.00
  0.550000D+00  0.100000D+01
  
  3  0
   s     9 1.00
  0.666500D+04  0.692000D-03
  0.100000D+04  0.532900D-02
  0.228000D+03  0.270770D-01
  0.647100D+02  0.101718D+00
  0.210600D+02  0.274740D+00
  0.749500D+01  0.448564D+00
  0.279700D+01  0.285074D+00
  0.521500D+00  0.152040D-01
  0.159600D+00 -0.319100D-02
   s     9 1.00
  0.666500D+04 -0.146000D-03
  0.100000D+04 -0.115400D-02
  0.228000D+03 -0.572500D-02
  0.647100D+02 -0.233120D-01
  0.210600D+02 -0.639550D-01
  0.749500D+01 -0.149981D+00
  0.279700D+01 -0.127262D+00
  0.521500D+00  0.544529D+00
  0.159600D+00  0.580496D+00
   s     1 1.00
  0.159600D+00  0.100000D+01
   p     4 1.00
  0.943900D+01  0.381090D-01
  0.200200D+01  0.209480D+00
  0.545600D+00  0.508557D+00
  0.151700D+00  0.468842D+00
   p     1 1.00
  0.151700D+00  0.100000D+01
   d     1 1.00
  0.550000D+00  0.100000D+01
  
  4  0
   s     9 1.00
  0.666500D+04  0.692000D-03
  0.100000D+04  0.532900D-02
  0.228000D+03  0.270770D-01
  0.647100D+02  0.101718D+00
  0.210600D+02  0.274740D+00
  0.749500D+01  0.448564D+00
  0.279700D+01  0.285074D+00
  0.521500D+00  0.152040D-01
  0.159600D+00 -0.319100D-02
   s     9 1.00
  0.666500D+04 -0.146000D-03
  0.100000D+04 -0.115400D-02
  0.228000D+03 -0.572500D-02
  0.647100D+02 -0.233120D-01
  0.210600D+02 -0.639550D-01
  0.749500D+01 -0.149981D+00
  0.279700D+01 -0.127262D+00
  0.521500D+00  0.544529D+00
  0.159600D+00  0.580496D+00
   s     1 1.00
  0.159600D+00  0.100000D+01
   p     4 1.00
  0.943900D+01  0.381090D-01
  0.200200D+01  0.209480D+00
  0.545600D+00  0.508557D+00
  0.151700D+00  0.468842D+00
   p     1 1.00
  0.151700D+00  0.100000D+01
   d     1 1.00
  0.550000D+00  0.100000D+01
  
  5  0
   s     9 1.00
  0.666500D+04  0.692000D-03
  0.100000D+04  0.532900D-02
  0.228000D+03  0.270770D-01
  0.647100D+02  0.101718D+00
  0.210600D+02  0.274740D+00
  0.749500D+01  0.448564D+00
  0.279700D+01  0.285074D+00
  0.521500D+00  0.152040D-01
  0.159600D+00 -0.319100D-02
   s     9 1.00
  0.666500D+04 -0.146000D-03
  0.100000D+04 -0.115400D-02
  0.228000D+03 -0.572500D-02
  0.647100D+02 -0.233120D-01
  0.210600D+02 -0.639550D-01
  0.749500D+01 -0.149981D+00
  0.279700D+01 -0.127262D+00
  0.521500D+00  0.544529D+00
  0.159600D+00  0.580496D+00
   s     1 1.00
  0.159600D+00  0.100000D+01
   p     4 1.00
  0.943900D+01  0.381090D-01
  0.200200D+01  0.209480D+00
  0.545600D+00  0.508557D+00
  0.151700D+00  0.468842D+00
   p     1 1.00
  0.151700D+00  0.100000D+01
   d     1 1.00
  0.550000D+00  0.100000D+01
  
  6  0
   s     4 1.00
  0.130100D+02  0.196850D-01
  0.196200D+01  0.137977D+00
  0.444600D+00  0.478148D+00
  0.122000D+00  0.501240D+00
   s     1 1.00
  0.122000D+00  0.100000D+01
   p     1 1.00
  0.727000D+00  0.100000D+01
  
  7  0
   s     4 1.00
  0.130100D+02  0.196850D-01
  0.196200D+01  0.137977D+00
  0.444600D+00  0.478148D+00
  0.122000D+00  0.501240D+00
   s     1 1.00
  0.122000D+00  0.100000D+01
   p     1 1.00
  0.727000D+00  0.100000D+01
  
[MO]
 Sym= __1_A1_
 Ene=  0.000000000000000E+000
 Spin= Alpha
 Occup=    2.00000000000000     
                     1   1.00087375164348     
                     2  3.986013382336792E-003
                     3 -6.241167986891137E-003
                     4  0.000000000000000E+000
                     5  0.000000000000000E+000
                     6  2.163045400106123E-003
                     7  0.000000000000000E+000
                     8  0.000000000000000E+000
                     9 -2.901783681558991E-003
                    10  1.234078490520430E-005
                    11  0.000000000000000E+000
                    12  0.000000000000000E+000
                    13  9.865930513823130E-005
                    14  0.000000000000000E+000
                    15  1.361627830376576E-004
                    16  5.237480428631929E-004
                    17  1.993717213614153E-003
                    18  0.000000000000000E+000
                    19  3.550068670657045E-004
                    20 -3.212871389465508E-004
                    21  0.000000000000000E+000
                    22  1.183946070305045E-003
                    23  3.164434612943798E-004
                    24  4.316726394282572E-005
                    25  0.000000000000000E+000
                    26  3.011194131778429E-004
                    27 -9.087770622985679E-005
                    28  0.000000000000000E+000
                    29  1.361627830376576E-004
                    30  5.237480428631929E-004
                    31  1.993717213614153E-003
                    32  0.000000000000000E+000
                    33 -3.550068670657045E-004
                    34 -3.212871389465508E-004
                    35  0.000000000000000E+000
                    36 -1.183946070305045E-003
                    37  3.164434612943798E-004
                    38  4.316726394282572E-005
                    39  0.000000000000000E+000
                    40 -3.011194131778429E-004
                    41 -9.087770622985679E-005
                    42  0.000000000000000E+000
                    43 -2.633657448049191E-005
                    44 -1.219021834584341E-004
                    45 -1.030811935187132E-003
                    46  0.000000000000000E+000
                    47  4.941835563865144E-005
                    48  2.919301246766630E-004
                    49  0.000000000000000E+000
                    50 -1.866112382102104E-004
                    51  3.947979811439463E-004
                    52 -6.225740468072903E-005
                    53  0.000000000000000E+000
                    54 -7.129708515682454E-006
                    55 -7.302848012465400E-005
                    56  0.000000000000000E+000
                    57 -2.633657448049191E-005
                    58 -1.219021834584341E-004
                    59 -1.030811935187132E-003
                    60  0.000000000000000E+000
                    61 -4.941835563865144E-005
                    62  2.919301246766630E-004
                    63  0.000000000000000E+000
                    64  1.866112382102104E-004
                    65  3.947979811439463E-004
                    66 -6.225740468072903E-005
                    67  0.000000000000000E+000
                    68  7.129708515682454E-006
                    69 -7.302848012465400E-005
                    70  0.000000000000000E+000
                    71 -3.593879235270591E-004
                    72  4.162315832328631E-004
                    73  0.000000000000000E+000
                    74 -2.156511743992252E-004
                    75  4.514601075498773E-005
                    76 -3.593879235270591E-004
                    77  4.162315832328631E-004
                    78  0.000000000000000E+000
                    79  2.156511743992252E-004
                    80  4.514601075498773E-005
 Sym= __2_A1_
 Ene=  0.000000000000000E+000
 Spin= Alpha
 Occup=    2.00000000000000     
                     1  3.912252622685000E-004
                     2  2.165539499428330E-003
                     3 -3.913521590399068E-003
                     4  0.000000000000000E+000
                     5  0.000000000000000E+000
                     6  3.526392944652849E-004
                     7  0.000000000000000E+000
                     8  0.000000000000000E+000
                     9 -1.908901023759239E-003
                    10 -1.949200743669865E-004
                    11  0.000000000000000E+000
                    12  0.000000000000000E+000
                    13  3.302204638525766E-004
                    14  0.000000000000000E+000
                    15  0.707902286800583     
                    16  5.362217636177748E-003
                    17 -3.324186269970204E-003
                    18  0.000000000000000E+000
                    19  1.225575073284655E-003
                    20 -5.583735308453714E-004
                    21  0.000000000000000E+000
                    22  6.961000756947522E-004
                    23  6.107640849635940E-004
                    24  7.888803831085772E-005
                    25  0.000000000000000E+000
                    26  2.200143033421498E-004
                    27 -5.888177969940892E-004
                    28  0.000000000000000E+000
                    29  0.707902286800583     
                    30  5.362217636177748E-003
                    31 -3.324186269970204E-003
                    32  0.000000000000000E+000
                    33 -1.225575073284655E-003
                    34 -5.583735308453714E-004
                    35  0.000000000000000E+000
                    36 -6.961000756947522E-004
                    37  6.107640849635940E-004
                    38  7.888803831085772E-005
                    39  0.000000000000000E+000
                    40 -2.200143033421498E-004
                    41 -5.888177969940892E-004
                    42  0.000000000000000E+000
                    43  8.910479352214814E-003
                    44 -1.604303659162167E-005
                    45 -2.473608680119493E-004
                    46  0.000000000000000E+000
                    47  7.120333730021730E-005
                    48  2.973779480885209E-004
                    49  0.000000000000000E+000
                    50 -4.140645545351733E-004
                    51  1.447630730993325E-004
                    52 -3.113933317167599E-004
                    53  0.000000000000000E+000
                    54  7.188808568471052E-005
                    55  9.600621222361064E-005
                    56  0.000000000000000E+000
                    57  8.910479352214814E-003
                    58 -1.604303659162167E-005
                    59 -2.473608680119493E-004
                    60  0.000000000000000E+000
                    61 -7.120333730021730E-005
                    62  2.973779480885209E-004
                    63  0.000000000000000E+000
                    64  4.140645545351733E-004
                    65  1.447630730993325E-004
                    66 -3.113933317167599E-004
                    67  0.000000000000000E+000
                    68 -7.188808568471052E-005
                    69  9.600621222361064E-005
                    70  0.000000000000000E+000
                    71 -4.130437578809256E-004
                    72  1.515135748959658E-003
                    73  0.000000000000000E+000
                    74 -3.381612506596181E-004
                    75 -6.632926317465401E-005
                    76 -4.130437578809256E-004
                    77  1.515135748959658E-003
                    78  0.000000000000000E+000
                    79  3.381612506596181E-004
                    80 -6.632926317465401E-005
 Sym= __3_A1_
 Ene=  0.000000000000000E+000
 Spin= Alpha
 Occup=    2.00000000000000     
                     1  1.419904907381235E-004
                     2  3.385245568967343E-004
                     3 -1.618843405273206E-003
                     4  0.000000000000000E+000
                     5  0.000000000000000E+000
                     6 -2.279252818929255E-004
                     7  0.000000000000000E+000
                     8  0.000000000000000E+000
                     9 -7.278760483202790E-004
                    10  2.196406738251156E-005
                    11  0.000000000000000E+000
                    12  0.000000000000000E+000
                    13 -3.038824535419444E-005
                    14  0.000000000000000E+000
                    15 -9.330739577084286E-003
                    16 -4.951622059694016E-004
                    17  4.360462992064852E-003
                    18  0.000000000000000E+000
                    19  1.257463762875761E-004
                    20  1.294566968435471E-005
                    21  0.000000000000000E+000
                    22  1.610381269745883E-003
                    23  2.130514356272624E-003
                    24 -1.154184419831571E-007
                    25  0.000000000000000E+000
                    26  1.410450125084624E-004
                    27 -5.207752879047274E-005
                    28  0.000000000000000E+000
                    29 -9.330739577084286E-003
                    30 -4.951622059694016E-004
                    31  4.360462992064852E-003
                    32  0.000000000000000E+000
                    33 -1.257463762875761E-004
                    34  1.294566968435471E-005
                    35  0.000000000000000E+000
                    36 -1.610381269745883E-003
                    37  2.130514356272624E-003
                    38 -1.154184419831571E-007
                    39  0.000000000000000E+000
                    40 -1.410450125084624E-004
                    41 -5.207752879047274E-005
                    42  0.000000000000000E+000
                    43  0.707887304497696     
                    44  5.395777287473365E-003
                    45 -8.185744440602600E-003
                    46  0.000000000000000E+000
                    47  1.252781626082375E-003
                    48 -9.037706246243158E-004
                    49  0.000000000000000E+000
                    50 -2.210155504755259E-004
                    51  2.191957465137024E-003
                    52 -2.459020484252694E-004
                    53  0.000000000000000E+000
                    54  3.617090071048867E-005
                    55 -8.081553166533580E-005
                    56  0.000000000000000E+000
                    57  0.707887304497696     
                    58  5.395777287473365E-003
                    59 -8.185744440602600E-003
                    60  0.000000000000000E+000
                    61 -1.252781626082375E-003
                    62 -9.037706246243158E-004
                    63  0.000000000000000E+000
                    64  2.210155504755259E-004
                    65  2.191957465137024E-003
                    66 -2.459020484252694E-004
                    67  0.000000000000000E+000
                    68 -3.617090071048867E-005
                    69 -8.081553166533580E-005
                    70  0.000000000000000E+000
                    71  8.927230150030576E-005
                    72  7.965866353885791E-004
                    73  0.000000000000000E+000
                    74 -8.779792790616406E-006
                    75 -4.691954074617231E-005
                    76  8.927230150030576E-005
                    77  7.965866353885791E-004
                    78  0.000000000000000E+000
                    79  8.779792790616406E-006
                    80 -4.691954074617231E-005
 Sym= __4_A1_
 Ene=  0.000000000000000E+000
 Spin= Alpha
 Occup=    2.00000000000000     
                     1 -1.026150924317305E-002
                     2  0.788703154500407     
                     3 -3.656719262516671E-002
                     4  0.000000000000000E+000
                     5  0.000000000000000E+000
                     6  0.138066157216981     
                     7  0.000000000000000E+000
                     8  0.000000000000000E+000
                     9 -1.749179658509862E-002
                    10  4.335338024997480E-003
                    11  0.000000000000000E+000
                    12  0.000000000000000E+000
                    13 -9.437008857300864E-003
                    14  0.000000000000000E+000
                    15 -1.119699439700516E-002
                    16  0.263756740953907     
                    17 -0.124545860461828     
                    18  0.000000000000000E+000
                    19  0.140652197799593     
                    20 -6.187827778775933E-002
                    21  0.000000000000000E+000
                    22 -6.789267688630192E-002
                    23  1.775254241172670E-002
                    24 -3.109578121293183E-003
                    25  0.000000000000000E+000
                    26 -2.152156519049744E-002
                    27 -1.542888332700253E-002
                    28  0.000000000000000E+000
                    29 -1.119699439700516E-002
                    30  0.263756740953907     
                    31 -0.124545860461828     
                    32  0.000000000000000E+000
                    33 -0.140652197799593     
                    34 -6.187827778775933E-002
                    35  0.000000000000000E+000
                    36  6.789267688630192E-002
                    37  1.775254241172670E-002
                    38 -3.109578121293183E-003
                    39  0.000000000000000E+000
                    40  2.152156519049744E-002
                    41 -1.542888332700253E-002
                    42  0.000000000000000E+000
                    43 -2.429765131728360E-003
                    44  0.108813645495879     
                    45 -2.817719223652038E-002
                    46  0.000000000000000E+000
                    47  2.173185563123092E-002
                    48 -5.758508942888661E-002
                    49  0.000000000000000E+000
                    50 -9.128823942120515E-003
                    51  1.420571511651915E-002
                    52  5.838333480319426E-003
                    53  0.000000000000000E+000
                    54  4.288088813618155E-004
                    55 -1.266650315835149E-003
                    56  0.000000000000000E+000
                    57 -2.429765131728360E-003
                    58  0.108813645495879     
                    59 -2.817719223652038E-002
                    60  0.000000000000000E+000
                    61 -2.173185563123092E-002
                    62 -5.758508942888661E-002
                    63  0.000000000000000E+000
                    64  9.128823942120515E-003
                    65  1.420571511651915E-002
                    66  5.838333480319426E-003
                    67  0.000000000000000E+000
                    68 -4.288088813618155E-004
                    69 -1.266650315835149E-003
                    70  0.000000000000000E+000
                    71  4.061656529925398E-002
                    72 -2.435904740369855E-002
                    73  0.000000000000000E+000
                    74  7.686230236323957E-003
                    75 -4.165895404858194E-004
                    76  4.061656529925398E-002
                    77 -2.435904740369855E-002
                    78  0.000000000000000E+000
                    79 -7.686230236323957E-003
                    80 -4.165895404858194E-004
 Sym= __5_A1_
 Ene=  0.000000000000000E+000
 Spin= Alpha
 Occup=    2.00000000000000     
                     1 -9.474005446889592E-004
                     2 -0.363068679685153     
                     3  2.455969184338947E-004
                     4  0.000000000000000E+000
                     5  0.000000000000000E+000
                     6  8.424510994725080E-002
                     7  0.000000000000000E+000
                     8  0.000000000000000E+000
                     9 -4.953059493732258E-003
                    10  6.014964239650875E-003
                    11  0.000000000000000E+000
                    12  0.000000000000000E+000
                    13  9.714920487940922E-004
                    14  0.000000000000000E+000
                    15 -2.800372557920486E-003
                    16  0.220854841221746     
                    17 -9.057353961767872E-002
                    18  0.000000000000000E+000
                    19  2.915055473597824E-002
                    20  0.202791810736675     
                    21  0.000000000000000E+000
                    22 -2.858135834638377E-002
                    23 -7.864288336132989E-002
                    24  7.252730125038738E-003
                    25  0.000000000000000E+000
                    26  2.633073431353729E-002
                    27 -1.856168948071131E-003
                    28  0.000000000000000E+000
                    29 -2.800372557920486E-003
                    30  0.220854841221746     
                    31 -9.057353961767872E-002
                    32  0.000000000000000E+000
                    33 -2.915055473597824E-002
                    34  0.202791810736675     
                    35  0.000000000000000E+000
                    36  2.858135834638377E-002
                    37 -7.864288336132989E-002
                    38  7.252730125038738E-003
                    39  0.000000000000000E+000
                    40 -2.633073431353729E-002
                    41 -1.856168948071131E-003
                    42  0.000000000000000E+000
                    43 -1.841305470544939E-002
                    44  0.517678281127110     
                    45 -0.146781712101279     
                    46  0.000000000000000E+000
                    47  0.188200616172940     
                    48 -0.152573149407348     
                    49  0.000000000000000E+000
                    50 -5.547836078184595E-002
                    51  3.077682558189065E-002
                    52 -4.647216706095536E-004
                    53  0.000000000000000E+000
                    54 -4.979391236425570E-004
                    55 -1.777702100716087E-002
                    56  0.000000000000000E+000
                    57 -1.841305470544939E-002
                    58  0.517678281127110     
                    59 -0.146781712101279     
                    60  0.000000000000000E+000
                    61 -0.188200616172940     
                    62 -0.152573149407348     
                    63  0.000000000000000E+000
                    64  5.547836078184595E-002
                    65  3.077682558189065E-002
                    66 -4.647216706095536E-004
                    67  0.000000000000000E+000
                    68  4.979391236425570E-004
                    69 -1.777702100716087E-002
                    70  0.000000000000000E+000
                    71  1.861401494834313E-002
                    72 -1.603092234795789E-002
                    73  0.000000000000000E+000
                    74 -1.153744976891346E-003
                    75  2.813009278513564E-003
                    76  1.861401494834313E-002
                    77 -1.603092234795789E-002
                    78  0.000000000000000E+000
                    79  1.153744976891346E-003
                    80  2.813009278513564E-003
 Sym= __6_A1_
 Ene=  0.000000000000000E+000
 Spin= Alpha
 Occup=    2.00000000000000     
                     1 -1.521199908849227E-003
                     2 -0.201705833768663     
                     3 -2.240514537900128E-002
                     4  0.000000000000000E+000
                     5  0.000000000000000E+000
                     6  6.490047389805957E-002
                     7  0.000000000000000E+000
                     8  0.000000000000000E+000
                     9  5.508209425088488E-003
                    10 -1.689189150323687E-003
                    11  0.000000000000000E+000
                    12  0.000000000000000E+000
                    13 -4.139899667424540E-003
                    14  0.000000000000000E+000
                    15 -7.562134665932261E-003
                    16  0.413811451919287     
                    17 -5.994502717278239E-002
                    18  0.000000000000000E+000
                    19 -0.226174193299687     
                    20  5.517137073597657E-003
                    21  0.000000000000000E+000
                    22  6.379497814585192E-002
                    23  1.281154883652005E-002
                    24  5.022516769491500E-003
                    25  0.000000000000000E+000
                    26  4.522503994014436E-003
                    27  2.824282776309440E-003
                    28  0.000000000000000E+000
                    29 -7.562134665932261E-003
                    30  0.413811451919287     
                    31 -5.994502717278239E-002
                    32  0.000000000000000E+000
                    33  0.226174193299687     
                    34  5.517137073597657E-003
                    35  0.000000000000000E+000
                    36 -6.379497814585192E-002
                    37  1.281154883652005E-002
                    38  5.022516769491500E-003
                    39  0.000000000000000E+000
                    40 -4.522503994014436E-003
                    41  2.824282776309440E-003
                    42  0.000000000000000E+000
                    43  3.961981967579269E-003
                    44 -0.171224198085246     
                    45  3.550646122274472E-002
                    46  0.000000000000000E+000
                    47 -0.321500557057708     
                    48 -0.117154318973822     
                    49  0.000000000000000E+000
                    50  8.903906307571896E-002
                    51  4.395181283520365E-002
                    52  1.192463929716843E-002
                    53  0.000000000000000E+000
                    54  7.105368191411573E-003
                    55  1.179538660202212E-002
                    56  0.000000000000000E+000
                    57  3.961981967579269E-003
                    58 -0.171224198085246     
                    59  3.550646122274472E-002
                    60  0.000000000000000E+000
                    61  0.321500557057708     
                    62 -0.117154318973822     
                    63  0.000000000000000E+000
                    64 -8.903906307571896E-002
                    65  4.395181283520365E-002
                    66  1.192463929716843E-002
                    67  0.000000000000000E+000
                    68 -7.105368191411573E-003
                    69  1.179538660202212E-002
                    70  0.000000000000000E+000
                    71  0.367525999012849     
                    72 -0.143452082541953     
                    73  0.000000000000000E+000
                    74  1.981597048052159E-002
                    75  1.135620708126767E-002
                    76  0.367525999012849     
                    77 -0.143452082541953     
                    78  0.000000000000000E+000
                    79 -1.981597048052159E-002
                    80  1.135620708126767E-002
 Sym= __7_A1_
 Ene=  0.000000000000000E+000
 Spin= Alpha
 Occup=    2.00000000000000     
                     1 -2.428504641092559E-003
                     2 -0.165548604319450     
                     3 -2.998617425410756E-002
                     4  0.000000000000000E+000
                     5  0.000000000000000E+000
                     6  0.621914707597925     
                     7  0.000000000000000E+000
                     8  0.000000000000000E+000
                     9 -5.371708932568685E-003
                    10  1.890008238148120E-002
                    11  0.000000000000000E+000
                    12  0.000000000000000E+000
                    13  5.620863264177066E-004
                    14  0.000000000000000E+000
                    15  1.596992501207687E-003
                    16  4.590751770328690E-002
                    17 -2.720688828771320E-002
                    18  0.000000000000000E+000
                    19  0.297954704035179     
                    20  0.103371010495661     
                    21  0.000000000000000E+000
                    22 -8.968781019050638E-002
                    23  2.172898527344950E-003
                    24 -1.341705754136228E-002
                    25  0.000000000000000E+000
                    26 -1.483867459476920E-002
                    27 -1.747115032226269E-002
                    28  0.000000000000000E+000
                    29  1.596992501207687E-003
                    30  4.590751770328690E-002
                    31 -2.720688828771320E-002
                    32  0.000000000000000E+000
                    33 -0.297954704035179     
                    34  0.103371010495661     