[Molden Format]
[Atoms] AU
  O     1    8     0.0000000000    0.0000000000   -2.2024593600        
  C     2    6     0.0000000000   -2.0802834200   -0.6649831500        
  C     3    6     0.0000000000    2.0802834200   -0.6649831500        
  C     4    6     0.0000000000   -1.2570207400    1.7897024000        
  C     5    6     0.0000000000    1.2570207400    1.7897024000        
  H     6    1     0.0000000000   -3.8984852700   -1.5908381000        
  H     7    1     0.0000000000    3.8984852700   -1.5908381000        
[5D7F]
[GTO]
  1  0
   s     9 1.00
  0.117200D+05  0.710000D-03
  0.175900D+04  0.547000D-02
  0.400800D+03  0.278370D-01
  0.113700D+03  0.104800D+00
  0.370300D+02  0.283062D+00
  0.132700D+02  0.448719D+00
  0.502500D+01  0.270952D+00
  0.101300D+01  0.154580D-01
  0.302300D+00 -0.258500D-02
   s     9 1.00
  0.117200D+05 -0.160000D-03
  0.175900D+04 -0.126300D-02
  0.400800D+03 -0.626700D-02
  0.113700D+03 -0.257160D-01
  0.370300D+02 -0.709240D-01
  0.132700D+02 -0.165411D+00
  0.502500D+01 -0.116955D+00
  0.101300D+01  0.557368D+00
  0.302300D+00  0.572759D+00
   s     1 1.00
  0.302300D+00  0.100000D+01
   p     4 1.00
  0.177000D+02  0.430180D-01
  0.385400D+01  0.228913D+00
  0.104600D+01  0.508728D+00
  0.275300D+00  0.460531D+00
   p     1 1.00
  0.275300D+00  0.100000D+01
   d     1 1.00
  0.118500D+01  0.100000D+01
  
  2  0
   s     9 1.00
  0.666500D+04  0.692000D-03
  0.100000D+04  0.532900D-02
  0.228000D+03  0.270770D-01
  0.647100D+02  0.101718D+00
  0.210600D+02  0.274740D+00
  0.749500D+01  0.448564D+00
  0.279700D+01  0.285074D+00
  0.521500D+00  0.152040D-01
  0.159600D+00 -0.319100D-02
   s     9 1.00
  0.666500D+04 -0.146000D-03
  0.100000D+04 -0.115400D-02
  0.228000D+03 -0.572500D-02
  0.647100D+02 -0.233120D-01
  0.210600D+02 -0.639550D-01
  0.749500D+01 -0.149981D+00
  0.279700D+01 -0.127262D+00
  0.521500D+00  0.544529D+00
  0.159600D+00  0.580496D+00
   s     1 1.00
  0.159600D+00  0.100000D+01
   p     4 1.00
  0.943900D+01  0.381090D-01
  0.200200D+01  0.209480D+00
  0.545600D+00  0.508557D+00
  0.151700D+00  0.468842D+00
   p     1 1.00
  0.151700D+00  0.100000D+01
   d     1 1.00
  0.550000D+00  0.100000D+01
  
  3  0
   s     9 1.00
  0.666500D+04  0.692000D-03
  0.100000D+04  0.532900D-02
  0.228000D+03  0.270770D-01
  0.647100D+02  0.101718D+00
  0.210600D+02  0.274740D+00
  0.749500D+01  0.448564D+00
  0.279700D+01  0.285074D+00
  0.521500D+00  0.152040D-01
  0.159600D+00 -0.319100D-02
   s     9 1.00
  0.666500D+04 -0.146000D-03
  0.100000D+04 -0.115400D-02
  0.228000D+03 -0.572500D-02
  0.647100D+02 -0.233120D-01
  0.210600D+02 -0.639550D-01
  0.749500D+01 -0.149981D+00
  0.279700D+01 -0.127262D+00
  0.521500D+00  0.544529D+00
  0.159600D+00  0.580496D+00
   s     1 1.00
  0.159600D+00  0.100000D+01
   p     4 1.00
  0.943900D+01  0.381090D-01
  0.200200D+01  0.209480D+00
  0.545600D+00  0.508557D+00
  0.151700D+00  0.468842D+00
   p     1 1.00
  0.151700D+00  0.100000D+01
   d     1 1.00
  0.550000D+00  0.100000D+01
  
  4  0
   s     9 1.00
  0.666500D+04  0.692000D-03
  0.100000D+04  0.532900D-02
  0.228000D+03  0.270770D-01
  0.647100D+02  0.101718D+00
  0.210600D+02  0.274740D+00
  0.749500D+01  0.448564D+00
  0.279700D+01  0.285074D+00
  0.521500D+00  0.152040D-01
  0.159600D+00 -0.319100D-02
   s     9 1.00
  0.666500D+04 -0.146000D-03
  0.100000D+04 -0.115400D-02
  0.228000D+03 -0.572500D-02
  0.647100D+02 -0.233120D-01
  0.210600D+02 -0.639550D-01
  0.749500D+01 -0.149981D+00
  0.279700D+01 -0.127262D+00
  0.521500D+00  0.544529D+00
  0.159600D+00  0.580496D+00
   s     1 1.00
  0.159600D+00  0.100000D+01
   p     4 1.00
  0.943900D+01  0.381090D-01
  0.200200D+01  0.209480D+00
  0.545600D+00  0.508557D+00
  0.151700D+00  0.468842D+00
   p     1 1.00
  0.151700D+00  0.100000D+01
   d     1 1.00
  0.550000D+00  0.100000D+01
  
  5  0
   s     9 1.00
  0.666500D+04  0.692000D-03
  0.100000D+04  0.532900D-02
  0.228000D+03  0.270770D-01
  0.647100D+02  0.101718D+00
  0.210600D+02  0.274740D+00
  0.749500D+01  0.448564D+00
  0.279700D+01  0.285074D+00
  0.521500D+00  0.152040D-01
  0.159600D+00 -0.319100D-02
   s     9 1.00
  0.666500D+04 -0.146000D-03
  0.100000D+04 -0.115400D-02
  0.228000D+03 -0.572500D-02
  0.647100D+02 -0.233120D-01
  0.210600D+02 -0.639550D-01
  0.749500D+01 -0.149981D+00
  0.279700D+01 -0.127262D+00
  0.521500D+00  0.544529D+00
  0.159600D+00  0.580496D+00
   s     1 1.00
  0.159600D+00  0.100000D+01
   p     4 1.00
  0.943900D+01  0.381090D-01
  0.200200D+01  0.209480D+00
  0.545600D+00  0.508557D+00
  0.151700D+00  0.468842D+00
   p     1 1.00
  0.151700D+00  0.100000D+01
   d     1 1.00
  0.550000D+00  0.100000D+01
  
  6  0
   s     4 1.00
  0.130100D+02  0.196850D-01
  0.196200D+01  0.137977D+00
  0.444600D+00  0.478148D+00
  0.122000D+00  0.501240D+00
   s     1 1.00
  0.122000D+00  0.100000D+01
   p     1 1.00
  0.727000D+00  0.100000D+01
  
  7  0
   s     4 1.00
  0.130100D+02  0.196850D-01
  0.196200D+01  0.137977D+00
  0.444600D+00  0.478148D+00
  0.122000D+00  0.501240D+00
   s     1 1.00
  0.122000D+00  0.100000D+01
   p     1 1.00
  0.727000D+00  0.100000D+01
  
[MO]
 Sym= __1_a1_
 Ene=  0.000000000000000E+000
 Spin= Alpha
 Occup=    2.00000000000000     
                     1   1.00087375142259     
                     2  3.986043039388350E-003
                     3 -6.241168409516220E-003
                     4  0.000000000000000E+000
                     5  0.000000000000000E+000
                     6  2.163039714187900E-003
                     7  0.000000000000000E+000
                     8  0.000000000000000E+000
                     9 -2.901784311930530E-003
                    10  1.234067745158388E-005
                    11  0.000000000000000E+000
                    12  0.000000000000000E+000
                    13  9.865911790736640E-005
                    14  0.000000000000000E+000
                    15  1.361627776081430E-004
                    16  5.237493136269600E-004
                    17  1.993715606020720E-003
                    18  0.000000000000000E+000
                    19  3.550098628166670E-004
                    20 -3.212895735726550E-004
                    21  0.000000000000000E+000
                    22  1.183944993261630E-003
                    23  3.164440608087810E-004
                    24  4.316732709696089E-005
                    25  0.000000000000000E+000
                    26  3.011185825490640E-004
                    27 -9.087787493797700E-005
                    28  0.000000000000000E+000
                    29  1.361627776081430E-004
                    30  5.237493136269600E-004
                    31  1.993715606020720E-003
                    32  0.000000000000000E+000
                    33 -3.550098628166670E-004
                    34 -3.212895735726550E-004
                    35  0.000000000000000E+000
                    36 -1.183944993261630E-003
                    37  3.164440608087810E-004
                    38  4.316732709696089E-005
                    39  0.000000000000000E+000
                    40 -3.011185825490640E-004
                    41 -9.087787493797700E-005
                    42  0.000000000000000E+000
                    43 -2.633649755528840E-005
                    44 -1.219028108207130E-004
                    45 -1.030811195706090E-003
                    46  0.000000000000000E+000
                    47  4.941828170754500E-005
                    48  2.919304011514930E-004
                    49  0.000000000000000E+000
                    50 -1.866114343880390E-004
                    51  3.947976929328750E-004
                    52 -6.225733263595449E-005
                    53  0.000000000000000E+000
                    54 -7.129705856347910E-006
                    55 -7.302840751325219E-005
                    56  0.000000000000000E+000
                    57 -2.633649755528840E-005
                    58 -1.219028108207130E-004
                    59 -1.030811195706090E-003
                    60  0.000000000000000E+000
                    61 -4.941828170754500E-005
                    62  2.919304011514930E-004
                    63  0.000000000000000E+000
                    64  1.866114343880390E-004
                    65  3.947976929328750E-004
                    66 -6.225733263595449E-005
                    67  0.000000000000000E+000
                    68  7.129705856347910E-006
                    69 -7.302840751325219E-005
                    70  0.000000000000000E+000
                    71 -3.593891361775100E-004
                    72  4.162319768980500E-004
                    73  0.000000000000000E+000
                    74 -2.156510752481560E-004
                    75  4.514598611770470E-005
                    76 -3.593891361775100E-004
                    77  4.162319768980500E-004
                    78  0.000000000000000E+000
                    79  2.156510752481560E-004
                    80  4.514598611770470E-005
 Sym= __2_a1_
 Ene=  0.000000000000000E+000
 Spin= Alpha
 Occup=    2.00000000000000     
                     1  3.912251788826300E-004
                     2  2.165541307360640E-003
                     3 -3.913524813260470E-003
                     4  0.000000000000000E+000
                     5  0.000000000000000E+000
                     6  3.526387004239660E-004
                     7  0.000000000000000E+000
                     8  0.000000000000000E+000
                     9 -1.908902274210710E-003
                    10 -1.949200984392165E-004
                    11  0.000000000000000E+000
                    12  0.000000000000000E+000
                    13  3.302203417838580E-004
                    14  0.000000000000000E+000
                    15  0.707902268887636     
                    16  5.362217801573080E-003
                    17 -3.324178085326290E-003
                    18  0.000000000000000E+000
                    19  1.225573590648570E-003
                    20 -5.583757681022960E-004
                    21  0.000000000000000E+000
                    22  6.961035090140559E-004
                    23  6.107687706469120E-004
                    24  7.888798831174321E-005
                    25  0.000000000000000E+000
                    26  2.200145737351260E-004
                    27 -5.888179123956239E-004
                    28  0.000000000000000E+000
                    29  0.707902268887636     
                    30  5.362217801573080E-003
                    31 -3.324178085326290E-003
                    32  0.000000000000000E+000
                    33 -1.225573590648570E-003
                    34 -5.583757681022960E-004
                    35  0.000000000000000E+000
                    36 -6.961035090140559E-004
                    37  6.107687706469120E-004
                    38  7.888798831174321E-005
                    39  0.000000000000000E+000
                    40 -2.200145737351260E-004
                    41 -5.888179123956239E-004
                    42  0.000000000000000E+000
                    43  8.911835657413840E-003
                    44 -1.603317484054550E-005
                    45 -2.473764464930650E-004
                    46  0.000000000000000E+000
                    47  7.120707498891120E-005
                    48  2.973775670924640E-004
                    49  0.000000000000000E+000
                    50 -4.140651708970080E-004
                    51  1.447668989997000E-004
                    52 -3.113938698384139E-004
                    53  0.000000000000000E+000
                    54  7.188819760760811E-005
                    55  9.600603328986901E-005
                    56  0.000000000000000E+000
                    57  8.911835657413840E-003
                    58 -1.603317484054550E-005
                    59 -2.473764464930650E-004
                    60  0.000000000000000E+000
                    61 -7.120707498891120E-005
                    62  2.973775670924640E-004
                    63  0.000000000000000E+000
                    64  4.140651708970080E-004
                    65  1.447668989997000E-004
                    66 -3.113938698384139E-004
                    67  0.000000000000000E+000
                    68 -7.188819760760811E-005
                    69  9.600603328986901E-005
                    70  0.000000000000000E+000
                    71 -4.130406625441180E-004
                    72  1.515136277648230E-003
                    73  0.000000000000000E+000
                    74 -3.381611297854420E-004
                    75 -6.632929940672830E-005
                    76 -4.130406625441180E-004
                    77  1.515136277648230E-003
                    78  0.000000000000000E+000
                    79  3.381611297854420E-004
                    80 -6.632929940672830E-005
 Sym= __3_a1_
 Ene=  0.000000000000000E+000
 Spin= Alpha
 Occup=    2.00000000000000     
                     1  1.419897728584800E-004
                     2  3.385222612602470E-004
                     3 -1.618836311936650E-003
                     4  0.000000000000000E+000
                     5  0.000000000000000E+000
                     6 -2.279198035837940E-004
                     7  0.000000000000000E+000
                     8  0.000000000000000E+000
                     9 -7.278718903986030E-004
                    10  2.196441781723860E-005
                    11  0.000000000000000E+000
                    12  0.000000000000000E+000
                    13 -3.038896683992400E-005
                    14  0.000000000000000E+000
                    15 -9.332095792445670E-003
                    16 -4.951766077239580E-004
                    17  4.360471314003590E-003
                    18  0.000000000000000E+000
                    19  1.257433563305580E-004
                    20  1.293910078457980E-005
                    21  0.000000000000000E+000
                    22  1.610380240268260E-003
                    23  2.130516026947250E-003
                    24 -1.160335653311963E-007
                    25  0.000000000000000E+000
                    26  1.410440514054990E-004
                    27 -5.207656964965040E-005
                    28  0.000000000000000E+000
                    29 -9.332095792445670E-003
                    30 -4.951766077239580E-004
                    31  4.360471314003590E-003
                    32  0.000000000000000E+000
                    33 -1.257433563305580E-004
                    34  1.293910078457980E-005
                    35  0.000000000000000E+000
                    36 -1.610380240268260E-003
                    37  2.130516026947250E-003
                    38 -1.160335653311963E-007
                    39  0.000000000000000E+000
                    40 -1.410440514054990E-004
                    41 -5.207656964965040E-005
                    42  0.000000000000000E+000
                    43  0.707887287867761     
                    44  5.395764217092540E-003
                    45 -8.185740728895991E-003
                    46  0.000000000000000E+000
                    47  1.252779223142420E-003
                    48 -9.037658524300570E-004
                    49  0.000000000000000E+000
                    50 -2.210137067132250E-004
                    51  2.191956196909280E-003
                    52 -2.459015111025766E-004
                    53  0.000000000000000E+000
                    54  3.617077498850920E-005
                    55 -8.081533604702340E-005
                    56  0.000000000000000E+000
                    57  0.707887287867761     
                    58  5.395764217092540E-003
                    59 -8.185740728895991E-003
                    60  0.000000000000000E+000
                    61 -1.252779223142420E-003
                    62 -9.037658524300570E-004
                    63  0.000000000000000E+000
                    64  2.210137067132250E-004
                    65  2.191956196909280E-003
                    66 -2.459015111025766E-004
                    67  0.000000000000000E+000
                    68 -3.617077498850920E-005
                    69 -8.081533604702340E-005
                    70  0.000000000000000E+000
                    71  8.927477195606020E-005
                    72  7.965833706119290E-004
                    73  0.000000000000000E+000
                    74 -8.779042513755589E-006
                    75 -4.691952304197880E-005
                    76  8.927477195606020E-005
                    77  7.965833706119290E-004
                    78  0.000000000000000E+000
                    79  8.779042513755589E-006
                    80 -4.691952304197880E-005
 Sym= __1_b2_
 Ene=  0.000000000000000E+000
 Spin= Alpha
 Occup=    2.00000000000000     
                     1  0.000000000000000E+000
                     2  0.000000000000000E+000
                     3  0.000000000000000E+000
                     4  0.000000000000000E+000
                     5 -5.511264577773260E-004
                     6  0.000000000000000E+000
                     7  0.000000000000000E+000
                     8  1.462097980410370E-003
                     9  0.000000000000000E+000
                    10  0.000000000000000E+000
                    11  0.000000000000000E+000
                    12  2.435001045982280E-004
                    13  0.000000000000000E+000
                    14  0.000000000000000E+000
                    15  0.708092212028986     
                    16  5.953634315917430E-003
                    17 -7.453711238100290E-003
                    18  0.000000000000000E+000
                    19  1.016169464854020E-003
                    20 -4.316595685621140E-004
                    21  0.000000000000000E+000
                    22 -1.980342379740230E-003
                    23 -2.087702126347360E-003
                    24  1.654664084952926E-004
                    25  0.000000000000000E+000
                    26  3.076651611988220E-004
                    27 -3.262477727195480E-004
                    28  0.000000000000000E+000
                    29 -0.708092212028986     
                    30 -5.953634315917430E-003
                    31  7.453711238100290E-003
                    32  0.000000000000000E+000
                    33  1.016169464854020E-003
                    34  4.316595685621140E-004
                    35  0.000000000000000E+000
                    36 -1.980342379740230E-003
                    37  2.087702126347360E-003
                    38 -1.654664084952926E-004
                    39  0.000000000000000E+000
                    40  3.076651611988220E-004
                    41  3.262477727195480E-004
                    42  0.000000000000000E+000
                    43  8.526867139574359E-003
                    44 -4.940702616039100E-004
                    45  3.102036348805890E-003
                    46  0.000000000000000E+000
                    47 -9.930512626279270E-005
                    48  3.508735210876820E-004
                    49  0.000000000000000E+000
                    50 -1.074121398353170E-003
                    51 -1.832711262759380E-003
                    52 -1.974849077716095E-004
                    53  0.000000000000000E+000
                    54  2.082429149557040E-004
                    55  1.292083232397204E-004
                    56  0.000000000000000E+000
                    57 -8.526867139574359E-003
                    58  4.940702616039100E-004
                    59 -3.102036348805890E-003
                    60  0.000000000000000E+000
                    61 -9.930512626279270E-005
                    62 -3.508735210876820E-004
                    63  0.000000000000000E+000
                    64 -1.074121398353170E-003
                    65  1.832711262759380E-003
                    66  1.974849077716095E-004
                    67  0.000000000000000E+000
                    68  2.082429149557040E-004
                    69 -1.292083232397204E-004
                    70  0.000000000000000E+000
                    71 -9.143978637888170E-004
                    72  4.759516314247830E-004
                    73  0.000000000000000E+000
                    74 -3.326334805579350E-004
                    75  6.029927289128580E-005
                    76  9.143978637888170E-004
                    77 -4.759516314247830E-004
                    78  0.000000000000000E+000
                    79 -3.326334805579350E-004
                    80 -6.029927289128580E-005
 Sym= __2_b2_
 Ene=  0.000000000000000E+000
 Spin= Alpha
 Occup=    2.00000000000000     
                     1  0.000000000000000E+000
                     2  0.000000000000000E+000
                     3  0.000000000000000E+000
                     4  0.000000000000000E+000
                     5 -1.312721817624350E-005
                     6  0.000000000000000E+000
                     7  0.000000000000000E+000
                     8  3.529974349358210E-004
                     9  0.000000000000000E+000
                    10  0.000000000000000E+000
                    11  0.000000000000000E+000
                    12 -1.439744866061410E-005
                    13  0.000000000000000E+000
                    14  0.000000000000000E+000
                    15 -9.121516625175789E-003
                    16 -7.465655590524940E-004
                    17  5.375259607318930E-003
                    18  0.000000000000000E+000
                    19 -1.404641820272630E-004
                    20  3.038957134780320E-005
                    21  0.000000000000000E+000
                    22  2.269521490306010E-003
                    23  1.813146648031660E-003
                    24 -1.121332681455129E-004
                    25  0.000000000000000E+000
                    26  1.109824508723470E-004
                    27 -1.685098615895218E-005
                    28  0.000000000000000E+000
                    29  9.121516625175789E-003
                    30  7.465655590524940E-004
                    31 -5.375259607318930E-003
                    32  0.000000000000000E+000
                    33 -1.404641820272630E-004
                    34 -3.038957134780320E-005
                    35  0.000000000000000E+000
                    36  2.269521490306010E-003
                    37 -1.813146648031660E-003
                    38  1.121332681455129E-004
                    39  0.000000000000000E+000
                    40  1.109824508723470E-004
                    41  1.685098615895218E-005
                    42  0.000000000000000E+000
                    43  0.708645991776310     
                    44  7.407019633539040E-003
                    45 -1.716182495613450E-002
                    46  0.000000000000000E+000
                    47  5.327576542737040E-004
                    48 -9.281465934982650E-005
                    49  0.000000000000000E+000
                    50 -3.736097656187650E-003
                    51  2.782133909695040E-003
                    52 -1.433649536337621E-004
                    53  0.000000000000000E+000
                    54  4.050287358119880E-004
                    55 -2.816959194920700E-004
                    56  0.000000000000000E+000
                    57 -0.708645991776310     
                    58 -7.407019633539040E-003
                    59  1.716182495613450E-002
                    60  0.000000000000000E+000
                    61  5.327576542737040E-004
                    62  9.281465934982650E-005
                    63  0.000000000000000E+000
                    64 -3.736097656187650E-003
                    65 -2.782133909695040E-003
                    66  1.433649536337621E-004
                    67  0.000000000000000E+000
                    68  4.050287358119880E-004
                    69  2.816959194920700E-004
                    70  0.000000000000000E+000
                    71 -9.769008550159050E-005
                    72  7.203288007772840E-004
                    73  0.000000000000000E+000
                    74 -6.886391341373170E-005
                    75 -5.091308342160260E-005
                    76  9.769008550159050E-005
                    77 -7.203288007772840E-004
                    78  0.000000000000000E+000
                    79 -6.886391341373170E-005
                    80  5.091308342160260E-005
 Sym= __4_a1_
 Ene=  0.000000000000000E+000
 Spin= Alpha
 Occup=    1.98901711726728     
                     1  6.942011282112600E-003
                     2 -0.825915832445486     
                     3  3.722036447679820E-002
                     4  0.000000000000000E+000
                     5  0.000000000000000E+000
                     6  0.106094509334646     
                     7  0.000000000000000E+000
                     8  0.000000000000000E+000
                     9  2.410737335969890E-002
                    10  1.961388027294939E-003
                    11  0.000000000000000E+000
                    12  0.000000000000000E+000
                    13  7.913608585204060E-003
                    14  0.000000000000000E+000
                    15  1.145429005978220E-002
                    16 -0.243992421441103     
                    17  0.106729647146589     
                    18  0.000000000000000E+000
                    19 -4.946589561314450E-002
                    20  3.913839495395840E-002
                    21  0.000000000000000E+000
                    22  3.059270773929970E-002
                    23 -7.381665884281740E-004
                    24 -4.152354495773044E-003
                    25  0.000000000000000E+000
                    26  1.659092167500580E-002
                    27  7.662697805163680E-003
                    28  0.000000000000000E+000
                    29  1.145429005978220E-002
                    30 -0.243992421441103     
                    31  0.106729647146589     
                    32  0.000000000000000E+000
                    33  4.946589561314450E-002
                    34  3.913839495395840E-002
                    35  0.000000000000000E+000
                    36 -3.059270773929970E-002
                    37 -7.381665884281740E-004
                    38 -4.152354495773044E-003
                    39  0.000000000000000E+000
                    40 -1.659092167500580E-002
                    41  7.662697805163680E-003
                    42  0.000000000000000E+000
                    43  3.347991571407090E-003
                    44 -0.147828424054171     
                    45  2.759319233689740E-002
                    46  0.000000000000000E+000
                    47 -3.003350135455580E-002
                    48  5.525403935062100E-002
                    49  0.000000000000000E+000
                    50  1.515330629038360E-002
                    51 -7.199205636333430E-003
                    52 -3.743654410025929E-003
                    53  0.000000000000000E+000
                    54 -1.822369472547490E-003
                    55  2.578870877257240E-003
                    56  0.000000000000000E+000
                    57  3.347991571407090E-003
                    58 -0.147828424054171     
                    59  2.759319233689740E-002
                    60  0.000000000000000E+000
                    61  3.003350135455580E-002
                    62  5.525403935062100E-002
                    63  0.000000000000000E+000
                    64 -1.515330629038360E-002
                    65 -7.199205636333430E-003
                    66 -3.743654410025929E-003
                    67  0.000000000000000E+000
                    68  1.822369472547490E-003
                    69  2.578870877257240E-003
                    70  0.000000000000000E+000
                    71 -8.598510576309400E-002
                    72  3.708385648992690E-002
                    73  0.000000000000000E+000
                    74 -8.668148834098780E-003
                    75 -2.961541704887130E-003
                    76 -8.598510576309400E-002
                    77  3.708385648992690E-002
                    78  0.000000000000000E+000
                    79  8.668148834098780E-003
                    80 -2.961541704887130E-003
 Sym= __5_a1_
 Ene=  0.000000000000000E+000
 Spin= Alpha
 Occup=    1.98424231010374     
                     1  3.336299620244960E-003
                     2  0.364865723390512     
                     3  4.954900947819590E-003
                     4  0.000000000000000E+000
                     5  0.000000000000000E+000
                     6 -0.228280866026831     
                     7  0.000000000000000E+000
                     8  0.000000000000000E+000
                     9  2.272724893031240E-004
                    10 -8.900827826966462E-003
                    11  0.000000000000000E+000
                    12  0.000000000000000E+000
                    13  6.410966636387540E-004
                    14  0.000000000000000E+000
                    15  3.087330306608460E-003
                    16 -0.260458273590023     
                    17  0.103075645852393     
                    18  0.000000000000000E+000
                    19 -5.764329764974280E-002
                    20 -0.154191676541097     
                    21  0.000000000000000E+000
                    22  4.263072366008560E-002
                    23  5.683747276501100E-002
                    24 -9.515971711501126E-004
                    25  0.000000000000000E+000
                    26 -2.316115266276550E-002
                    27  7.301825648594420E-003
                    28  0.000000000000000E+000
                    29  3.087330306608460E-003
                    30 -0.260458273590023     
                    31  0.103075645852393     
                    32  0.000000000000000E+000
                    33  5.764329764974280E-002
                    34 -0.154191676541097     