 Entering Gaussian System, Link 0=g16
 Input=4planar_truncated.com
 Output=4planar_truncated.log
 Initial command:
 /usr/local/gaussian/g16c02/g16/l1.exe "/scratch/cparish/Gau-41317.inp" -scrdir="/scratch/cparish/"
 Entering Link 1 = /usr/local/gaussian/g16c02/g16/l1.exe PID=     41325.
  
 Copyright (c) 1988-2021, Gaussian, Inc.  All Rights Reserved.
  
 This is part of the Gaussian(R) 16 program.  It is based on
 the Gaussian(R) 09 system (copyright 2009, Gaussian, Inc.),
 the Gaussian(R) 03 system (copyright 2003, Gaussian, Inc.),
 the Gaussian(R) 98 system (copyright 1998, Gaussian, Inc.),
 the Gaussian(R) 94 system (copyright 1995, Gaussian, Inc.),
 the Gaussian 92(TM) system (copyright 1992, Gaussian, Inc.),
 the Gaussian 90(TM) system (copyright 1990, Gaussian, Inc.),
 the Gaussian 88(TM) system (copyright 1988, Gaussian, Inc.),
 the Gaussian 86(TM) system (copyright 1986, Carnegie Mellon
 University), and the Gaussian 82(TM) system (copyright 1983,
 Carnegie Mellon University). Gaussian is a federally registered
 trademark of Gaussian, Inc.
  
 This software contains proprietary and confidential information,
 including trade secrets, belonging to Gaussian, Inc.
  
 This software is provided under written license and may be
 used, copied, transmitted, or stored only in accord with that
 written license.
  
 The following legend is applicable only to US Government
 contracts under FAR:
  
                    RESTRICTED RIGHTS LEGEND
  
 Use, reproduction and disclosure by the US Government is
 subject to restrictions as set forth in subparagraphs (a)
 and (c) of the Commercial Computer Software - Restricted
 Rights clause in FAR 52.227-19.
  
 Gaussian, Inc.
 340 Quinnipiac St., Bldg. 40, Wallingford CT 06492
  
  
 ---------------------------------------------------------------
 Warning -- This program may not be used in any manner that
 competes with the business of Gaussian, Inc. or will provide
 assistance to any competitor of Gaussian, Inc.  The licensee
 of this program is prohibited from giving any competitor of
 Gaussian, Inc. access to this program.  By using this program,
 the user acknowledges that Gaussian, Inc. is engaged in the
 business of creating and licensing software in the field of
 computational chemistry and represents and warrants to the
 licensee that it is not a competitor of Gaussian, Inc. and that
 it will not use this program in any manner prohibited above.
 ---------------------------------------------------------------
  

 Cite this work as:
 Gaussian 16, Revision C.02,
 M. J. Frisch, G. W. Trucks, H. B. Schlegel, G. E. Scuseria, 
 M. A. Robb, J. R. Cheeseman, G. Scalmani, V. Barone, 
 G. A. Petersson, H. Nakatsuji, X. Li, M. Caricato, A. V. Marenich, 
 J. Bloino, B. G. Janesko, R. Gomperts, B. Mennucci, H. P. Hratchian, 
 J. V. Ortiz, A. F. Izmaylov, J. L. Sonnenberg, D. Williams-Young, 
 F. Ding, F. Lipparini, F. Egidi, J. Goings, B. Peng, A. Petrone, 
 T. Henderson, D. Ranasinghe, V. G. Zakrzewski, J. Gao, N. Rega, 
 G. Zheng, W. Liang, M. Hada, M. Ehara, K. Toyota, R. Fukuda, 
 J. Hasegawa, M. Ishida, T. Nakajima, Y. Honda, O. Kitao, H. Nakai, 
 T. Vreven, K. Throssell, J. A. Montgomery, Jr., J. E. Peralta, 
 F. Ogliaro, M. J. Bearpark, J. J. Heyd, E. N. Brothers, K. N. Kudin, 
 V. N. Staroverov, T. A. Keith, R. Kobayashi, J. Normand, 
 K. Raghavachari, A. P. Rendell, J. C. Burant, S. S. Iyengar, 
 J. Tomasi, M. Cossi, J. M. Millam, M. Klene, C. Adamo, R. Cammi, 
 J. W. Ochterski, R. L. Martin, K. Morokuma, O. Farkas, 
 J. B. Foresman, and D. J. Fox, Gaussian, Inc., Wallingford CT, 2019.
 
 ******************************************
 Gaussian 16:  ES64L-G16RevC.02  7-Dec-2021
                14-May-2025 
 ******************************************
 %chk=4planar.chk
 %nproc = 8
 Will use up to    8 processors via shared memory.
 %mem = 10000MB
 ---------------------------------------------
 # b3lyp/6-31g* SCF=YQC guess=check geom=check
 ---------------------------------------------
 1/29=2,38=1,172=1/1;
 2/12=2,40=1/2;
 3/5=1,6=6,7=1,11=2,14=-4,25=1,30=1,74=-5,116=-2/1,2,3;
 4/5=1/1;
 5/5=2,8=4,13=1,38=6/8,2,8;
 6/7=2,8=2,9=2,10=2,28=1/1;
 99/5=1,9=1/99;
 -----
 Title
 -----
 Structure from the checkpoint file:  "4planar.chk"
 Charge =  0 Multiplicity = 1
 Redundant internal coordinates found in file.  (old form).
 Si,0,4.4631356651,-1.9272964176,-0.9820912164
 N,0,2.7974459602,-2.2604501961,-0.4885745351
 Si,0,1.6330064386,-1.1162699276,0.1736122581
 N,0,0.0555110907,-1.815117034,-0.0345189944
 Si,0,5.0787407648,1.1490547214,-0.3299649465
 N,0,3.6176942729,1.8491603575,0.3848243482
 Si,0,2.0729702555,1.0409142383,0.6312064172
 N,0,0.8562078339,2.2766824282,0.8577232345
 N,0,1.9339154509,-0.330552685,1.721273571
 N,0,4.7122747227,-0.5316065803,0.0738091593
 Si,0,-3.7501733336,-1.3273451375,1.8057799481
 N,0,-4.1422554067,-2.1282993701,0.0948586238
 Si,0,-4.3991103646,-0.3134968592,-0.9358267017
 Si,0,-2.4110382141,0.6860164945,1.3651976802
 N,0,-1.5685781158,0.9121602531,-0.504906412
 Si,0,-2.5297511676,1.7570042466,-1.8407044745
 N,0,-4.2068209155,0.2878497892,0.8000208095
 N,0,-4.1813610648,1.3211088772,-1.7203560103
 H,0,2.4238043853,-3.1500535977,-0.8149496651
 H,0,-0.0605869717,-2.7215749762,-0.473102208
 H,0,3.6224388555,2.863174392,0.4803738236
 H,0,1.0674078383,3.2539023801,0.6855863683
 H,0,1.968699099,-0.5490504872,2.7164697991
 H,0,4.1054860304,-0.5860487108,0.8964775118
 H,0,-4.9915176261,-2.6901455911,0.1741602932
 H,0,-1.1793504804,0.0113039626,-0.8130143196
 H,0,-4.9053650964,0.9677852828,1.09467876
 H,0,-4.8204726312,2.0755721434,-1.482347663
 H,0,-1.8539170391,1.3308703229,-3.0928368111
 H,0,-2.2996755442,3.2090119189,-1.6220962129
 H,0,-5.7961996095,-0.6575540847,-1.2988974971
 H,0,-3.2518330254,-0.8472105547,-1.7348522771
 H,0,-3.4340607881,-2.7358127191,-0.3167648079
 H,0,-0.6383573703,-1.6654769974,0.6985362866
 H,0,3.604829576,-5.4529349449,-3.4760554813
 H,0,5.7299689236,5.4196660506,-1.1774945034
 H,0,0.2318578497,2.1807149077,1.656508447
 H,0,-0.7420755078,1.4875304408,-0.2593200272
 H,0,5.8716743774,4.6910693411,-1.2207279551
 H,0,3.9984417294,-4.859342052,-3.2625476915
 Recover connectivity data from disk.
                           ----------------------------
                           !    Current Parameters    !
                           ! (Angstroms and Degrees)  !
 --------------------------                            --------------------------
 ! Name  Definition              Value                                          !
 --------------------------------------------------------------------------------
 ! R1    R(1,2)                  1.7689                                         !
 ! R2    R(1,3)                  3.1628                                         !
 ! R3    R(1,10)                 1.7678                                         !
 ! R4    R(1,19)                 2.3837                                         !
 ! R5    R(1,35)                 4.403                                          !
 ! R6    R(1,40)                 3.7434                                         !
 ! R7    R(2,3)                  1.7617                                         !
 ! R8    R(2,19)                 1.0186                                         !
 ! R9    R(3,4)                  1.7379                                         !
 ! R10   R(3,9)                  1.7616                                         !
 ! R11   R(3,10)                 3.1359                                         !
 ! R12   R(3,11)                 5.6291                                         !
 ! R13   R(3,19)                 2.3956                                         !
 ! R14   R(3,20)                 2.4215                                         !
 ! R15   R(3,34)                 2.3951                                         !
 ! R16   R(4,11)                 4.2553                                         !
 ! R17   R(4,20)                 1.0137                                         !
 ! R18   R(5,6)                  1.7708                                         !
 ! R19   R(5,7)                  3.1576                                         !
 ! R20   R(5,10)                 1.7669                                         !
 ! R21   R(5,21)                 2.3907                                         !
 ! R22   R(5,36)                 4.4023                                         !
 ! R23   R(5,39)                 3.7374                                         !
 ! R24   R(6,7)                  1.7607                                         !
 ! R25   R(6,21)                 1.0185                                         !
 ! R26   R(7,8)                  1.749                                          !
 ! R27   R(7,9)                  1.7574                                         !
 ! R28   R(7,10)                 3.1224                                         !
 ! R29   R(7,14)                 4.5575                                         !
 ! R30   R(7,21)                 2.3967                                         !
 ! R31   R(7,22)                 2.4313                                         !
 ! R32   R(7,37)                 2.3958                                         !
 ! R33   R(8,14)                 3.6691                                         !
 ! R34   R(8,22)                 1.0145                                         !
 ! R35   R(9,11)                 5.7714                                         !
 ! R36   R(9,23)                 1.0195                                         !
 ! R37   R(10,24)                1.0237                                         !
 ! R38   R(11,12)                1.9294                                         !
 ! R39   R(11,13)                2.9942                                         !
 ! R40   R(11,17)                1.9568                                         !
 ! R41   R(11,20)                4.5552                                         !
 ! R42   R(11,25)                2.4618                                         !
 ! R43   R(11,33)                2.5669                                         !
 ! R44   R(12,13)                2.1028                                         !
 ! R45   R(12,25)                1.0214                                         !
 ! R46   R(13,17)                1.8471                                         !
 ! R47   R(13,18)                1.8262                                         !
 ! R48   R(13,25)                2.6891                                         !
 ! R49   R(13,31)                1.4839                                         !
 ! R50   R(13,32)                1.4965                                         !
 ! R51   R(14,15)                2.0635                                         !
 ! R52   R(14,16)                3.3821                                         !
 ! R53   R(14,17)                1.9243                                         !
 ! R54   R(14,22)                4.3767                                         !
 ! R55   R(14,26)                2.5917                                         !
 ! R56   R(14,38)                2.4631                                         !
 ! R57   R(15,16)                1.8499                                         !
 ! R58   R(15,26)                1.0286                                         !
 ! R59   R(16,18)                1.7124                                         !
 ! R60   R(16,26)                2.4346                                         !
 ! R61   R(16,29)                1.4853                                         !
 ! R62   R(16,30)                1.4863                                         !
 ! R63   R(17,27)                1.0184                                         !
 ! R64   R(18,28)                1.017                                          !
 ! A1    A(2,1,10)              96.5899                                         !
 ! A2    A(2,1,35)              79.8434                                         !
 ! A3    A(2,1,40)              84.5805                                         !
 ! A4    A(3,1,35)             103.761                                          !
 ! A5    A(3,1,40)             108.2022                                         !
 ! A6    A(10,1,19)            118.9271                                         !
 ! A7    A(10,1,35)            176.3776                                         !
 ! A8    A(10,1,40)            178.7675                                         !
 ! A9    A(19,1,35)             57.4655                                         !
 ! A10   A(19,1,40)             62.2723                                         !
 ! A11   A(35,1,40)              4.8453                                         !
 ! A12   A(1,3,4)              131.7108                                         !
 ! A13   A(1,3,9)              106.413                                          !
 ! A14   A(1,3,20)             110.9933                                         !
 ! A15   A(1,3,34)             150.4474                                         !
 ! A16   A(2,3,4)              107.0851                                         !
 ! A17   A(2,3,9)              120.4653                                         !
 ! A18   A(2,3,10)              57.3219                                         !
 ! A19   A(2,3,11)             135.7852                                         !
 ! A20   A(2,3,20)              86.0627                                         !
 ! A21   A(2,3,34)             124.0761                                         !
 ! A22   A(4,3,9)              116.0806                                         !
 ! A23   A(4,3,10)             164.2585                                         !
 ! A24   A(4,3,19)              84.7689                                         !
 ! A25   A(4,3,34)              22.0581                                         !
 ! A26   A(9,3,10)              77.1186                                         !
 ! A27   A(9,3,19)             133.2218                                         !
 ! A28   A(9,3,20)             130.5273                                         !
 ! A29   A(9,3,34)              94.1128                                         !
 ! A30   A(10,3,11)            162.7974                                         !
 ! A31   A(10,3,19)             79.6888                                         !
 ! A32   A(10,3,20)            143.3106                                         !
 ! A33   A(10,3,34)            168.8038                                         !
 ! A34   A(11,3,19)            113.797                                          !
 ! A35   A(11,3,34)             11.7438                                         !
 ! A36   A(19,3,20)             63.7587                                         !
 ! A37   A(19,3,34)            102.0534                                         !
 ! A38   A(20,3,34)             40.8194                                         !
 ! A39   A(6,5,10)              96.4707                                         !
 ! A40   A(6,5,36)              79.4106                                         !
 ! A41   A(6,5,39)              84.0629                                         !
 ! A42   A(7,5,36)             103.4527                                         !
 ! A43   A(7,5,39)             107.8768                                         !
 ! A44   A(10,5,21)            118.5672                                         !
 ! A45   A(10,5,36)            175.8712                                         !
 ! A46   A(10,5,39)            179.3442                                         !
 ! A47   A(21,5,36)             57.3051                                         !
 ! A48   A(21,5,39)             61.9995                                         !
 ! A49   A(36,5,39)              4.7                                            !
 ! A50   A(5,7,8)              132.6469                                         !
 ! A51   A(5,7,9)              106.9094                                         !
 ! A52   A(5,7,22)             111.6747                                         !
 ! A53   A(5,7,37)             147.7249                                         !
 ! A54   A(6,7,8)              107.706                                          !
 ! A55   A(6,7,9)              120.9604                                         !
 ! A56   A(6,7,10)              57.6304                                         !
 ! A57   A(6,7,14)             157.1397                                         !
 ! A58   A(6,7,22)              87.0284                                         !
 ! A59   A(6,7,37)             121.0434                                         !
 ! A60   A(8,7,9)              114.5832                                         !
 ! A61   A(8,7,10)             165.2441                                         !
 ! A62   A(8,7,21)              85.452                                          !
 ! A63   A(8,7,37)              22.1529                                         !
 ! A64   A(9,7,10)              77.5602                                         !
 ! A65   A(9,7,14)              76.2013                                         !
 ! A66   A(9,7,21)             133.1203                                         !
 ! A67   A(9,7,22)             131.5831                                         !
 ! A68   A(9,7,37)              92.58                                           !
 ! A69   A(10,7,14)            145.2026                                         !
 ! A70   A(10,7,21)             79.9335                                         !
 ! A71   A(10,7,22)            144.2898                                         !
 ! A72   A(10,7,37)            164.9174                                         !
 ! A73   A(14,7,21)            134.8627                                         !
 ! A74   A(14,7,37)             38.0066                                         !
 ! A75   A(21,7,22)             64.9603                                         !
 ! A76   A(21,7,37)             99.3245                                         !
 ! A77   A(22,7,37)             40.4998                                         !
 ! A78   A(3,9,7)               79.4349                                         !
 ! A79   A(3,9,23)             140.1623                                         !
 ! A80   A(7,9,11)             102.8142                                         !
 ! A81   A(7,9,23)             140.3573                                         !
 ! A82   A(11,9,23)             88.9854                                         !
 ! A83   A(1,10,5)             130.07                                           !
 ! A84   A(1,10,24)            110.7622                                         !
 ! A85   A(3,10,7)              42.1146                                         !
 ! A86   A(3,10,24)             51.8633                                         !
 ! A87   A(5,10,24)            110.9266                                         !
 ! A88   A(7,10,24)             51.8507                                         !
 ! A89   A(3,11,12)             87.2937                                         !
 ! A90   A(3,11,17)             92.4753                                         !
 ! A91   A(3,11,25)            108.1074                                         !
 ! A92   A(3,11,33)             70.3087                                         !
 ! A93   A(4,11,9)              29.85                                           !
 ! A94   A(4,11,12)             75.5613                                         !
 ! A95   A(4,11,13)             80.5991                                         !
 ! A96   A(4,11,17)             94.6484                                         !
 ! A97   A(4,11,25)             95.7897                                         !
 ! A98   A(4,11,33)             57.9513                                         !
 ! A99   A(9,11,12)            105.0021                                         !
 ! A100  A(9,11,13)             98.1382                                         !
 ! A101  A(9,11,17)             94.5741                                         !
 ! A102  A(9,11,20)             41.2214                                         !
 ! A103  A(9,11,25)            125.628                                          !
 ! A104  A(9,11,33)             87.7863                                         !
 ! A105  A(12,11,17)            80.7613                                         !
 ! A106  A(12,11,20)            66.0403                                         !
 ! A107  A(12,11,33)            20.605                                          !
 ! A108  A(13,11,20)            79.6949                                         !
 ! A109  A(13,11,33)            56.9995                                         !
 ! A110  A(17,11,20)           100.6335                                         !
 ! A111  A(17,11,25)            89.9205                                         !
 ! A112  A(17,11,33)            93.2474                                         !
 ! A113  A(20,11,25)            84.6875                                         !
 ! A114  A(20,11,33)            47.0494                                         !
 ! A115  A(25,11,33)            37.8418                                         !
 ! A116  A(11,13,18)           132.1136                                         !
 ! A117  A(11,13,32)           101.6521                                         !
 ! A118  A(12,13,17)            78.9089                                         !
 ! A119  A(12,13,18)           165.5853                                         !
 ! A120  A(12,13,31)            91.9957                                         !
 ! A121  A(12,13,32)            81.9675                                         !
 ! A122  A(17,13,18)            95.7337                                         !
 ! A123  A(17,13,25)            85.57                                           !
 ! A124  A(17,13,31)           113.7926                                         !
 ! A125  A(18,13,25)           174.0917                                         !
 ! A126  A(18,13,31)           102.3971                                         !
 ! A127  A(18,13,32)            89.9106                                         !
 ! A128  A(25,13,31)            71.8609                                         !
 ! A129  A(25,13,32)            94.2482                                         !
 ! A130  A(31,13,32)           120.5605                                         !
 ! A131  A(7,14,15)             56.2091                                         !
 ! A132  A(7,14,17)            152.4971                                         !
 ! A133  A(7,14,26)             54.3621                                         !
 ! A134  A(7,14,38)             37.0403                                         !
 ! A135  A(8,14,15)             57.5614                                         !
 ! A136  A(8,14,16)             76.283                                          !
 ! A137  A(8,14,17)            151.6533                                         !
 ! A138  A(8,14,26)             64.7501                                         !
 ! A139  A(8,14,38)             33.3158                                         !
 ! A140  A(15,14,17)            97.9031                                         !
 ! A141  A(15,14,22)            58.0287                                         !
 ! A142  A(15,14,38)            24.4935                                         !
 ! A143  A(16,14,17)            75.7804                                         !
 ! A144  A(16,14,22)            72.237                                          !
 ! A145  A(16,14,38)            45.2165                                         !
 ! A146  A(17,14,22)           144.8347                                         !
 ! A147  A(17,14,26)            98.2094                                         !
 ! A148  A(17,14,38)           120.3951                                         !
 ! A149  A(22,14,26)            69.1778                                         !
 ! A150  A(22,14,38)            33.7103                                         !
 ! A151  A(26,14,38)            37.6632                                         !
 ! A152  A(14,16,18)            83.4903                                         !
 ! A153  A(14,16,29)           133.809                                          !
 ! A154  A(15,16,18)           109.5204                                         !
 ! A155  A(15,16,29)           103.9629                                         !
 ! A156  A(15,16,30)           105.0423                                         !
 ! A157  A(18,16,26)           108.8319                                         !
 ! A158  A(18,16,29)           115.1553                                         !
 ! A159  A(18,16,30)           112.8083                                         !
 ! A160  A(26,16,29)            84.1313                                         !
 ! A161  A(26,16,30)           123.5424                                         !
 ! A162  A(29,16,30)           109.5018                                         !
 ! A163  A(11,17,14)            78.5828                                         !
 ! A164  A(11,17,27)           124.2271                                         !
 ! A165  A(13,17,14)           116.1383                                         !
 ! A166  A(13,17,27)           114.7003                                         !
 ! A167  A(14,17,27)           114.6455                                         !
 ! A168  A(13,18,16)           111.904                                          !
 ! A169  A(13,18,28)           119.2456                                         !
 ! A170  A(16,18,28)           115.7039                                         !
 ! A171  L(1,3,11,34,-1)       162.1912                                         !
 ! A172  L(5,7,14,9,-1)        183.1107                                         !
 ! A173  L(1,10,7,24,-1)       162.613                                          !
 ! A174  L(3,10,5,24,-1)       162.7899                                         !
 ! A175  L(3,11,13,33,-1)      127.3081                                         !
 ! A176  L(11,13,31,18,-1)     234.5107                                         !
 ! A177  L(17,13,32,12,-1)     160.8765                                         !
 ! A178  L(7,14,16,17,-1)      228.2775                                         !
 ! A179  L(14,16,30,18,-1)     196.2986                                         !
 ! A180  L(1,3,11,34,-2)       178.9891                                         !
 ! A181  L(5,7,14,9,-2)        188.5238                                         !
 ! A182  L(1,10,7,24,-2)       256.941                                          !
 ! A183  L(3,10,5,24,-2)       256.804                                          !
 ! A184  L(3,11,13,33,-2)      261.8019                                         !
 ! A185  L(11,13,31,18,-2)     227.0635                                         !
 ! A186  L(17,13,32,12,-2)     234.4506                                         !
 ! A187  L(7,14,16,17,-2)      323.6766                                         !
 ! A188  L(14,16,30,18,-2)      97.5638                                         !
 ! D1    D(35,1,3,4)             0.5464                                         !
 ! D2    D(35,1,3,9)           151.7673                                         !
 ! D3    D(35,1,3,20)            4.7737                                         !
 ! D4    D(35,1,3,34)           19.6143                                         !
 ! D5    D(40,1,3,4)             2.5621                                         !
 ! D6    D(40,1,3,9)           153.783                                          !
 ! D7    D(40,1,3,20)            6.7894                                         !
 ! D8    D(40,1,3,34)           21.63                                           !
 ! D9    D(2,1,10,5)          -118.6365                                         !
 ! D10   D(2,1,10,24)           26.2537                                         !
 ! D11   D(19,1,10,5)         -123.5364                                         !
 ! D12   D(19,1,10,24)          21.3537                                         !
 ! D13   D(35,1,10,5)         -128.655                                          !
 ! D14   D(35,1,10,24)          16.2351                                         !
 ! D15   D(40,1,10,5)           43.0852                                         !
 ! D16   D(40,1,10,24)        -172.0247                                         !
 ! D17   D(1,2,3,19)           165.3591                                         !
 ! D18   D(1,3,9,7)             87.2324                                         !
 ! D19   D(1,3,9,23)           -95.0644                                         !
 ! D20   D(2,3,9,7)            111.7776                                         !
 ! D21   D(2,3,9,23)           -70.5192                                         !
 ! D22   D(4,3,9,7)           -116.3545                                         !
 ! D23   D(4,3,9,23)            61.3486                                         !
 ! D24   D(10,3,9,7)            72.773                                          !
 ! D25   D(10,3,9,23)         -109.5239                                         !
 ! D26   D(19,3,9,7)           134.9403                                         !
 ! D27   D(19,3,9,23)          -47.3565                                         !
 ! D28   D(20,3,9,7)          -134.7646                                         !
 ! D29   D(20,3,9,23)           42.9385                                         !
 ! D30   D(34,3,9,7)          -114.2735                                         !
 ! D31   D(34,3,9,23)           63.4297                                         !
 ! D32   D(2,3,10,7)           168.1252                                         !
 ! D33   D(2,3,10,24)         -119.4895                                         !
 ! D34   D(4,3,10,7)           159.6769                                         !
 ! D35   D(4,3,10,24)         -127.9378                                         !
 ! D36   D(9,3,10,7)           -52.0032                                         !
 ! D37   D(9,3,10,24)           20.3821                                         !
 ! D38   D(11,3,10,7)          -48.0432                                         !
 ! D39   D(11,3,10,24)          24.3421                                         !
 ! D40   D(19,3,10,7)          168.9153                                         !
 ! D41   D(19,3,10,24)        -118.6993                                         !
 ! D42   D(20,3,10,7)          164.0238                                         !
 ! D43   D(20,3,10,24)        -123.5908                                         !
 ! D44   D(34,3,10,7)          -91.0656                                         !
 ! D45   D(34,3,10,24)         -18.6802                                         !
 ! D46   D(2,3,11,12)          -51.3787                                         !
 ! D47   D(2,3,11,17)         -132.0023                                         !
 ! D48   D(2,3,11,25)          -41.2761                                         !
 ! D49   D(2,3,11,33)          -39.4373                                         !
 ! D50   D(10,3,11,12)         174.0467                                         !
 ! D51   D(10,3,11,17)          93.4231                                         !
 ! D52   D(10,3,11,25)        -175.8507                                         !
 ! D53   D(10,3,11,33)        -174.0119                                         !
 ! D54   D(19,3,11,12)         -46.2309                                         !
 ! D55   D(19,3,11,17)        -126.8545                                         !
 ! D56   D(19,3,11,25)         -36.1283                                         !
 ! D57   D(19,3,11,33)         -34.2895                                         !
 ! D58   D(34,3,11,12)         -46.5616                                         !
 ! D59   D(34,3,11,17)        -127.1852                                         !
 ! D60   D(34,3,11,25)         -36.459                                          !
 ! D61   D(34,3,11,33)         -34.6202                                         !
 ! D62   D(3,4,11,20)         -160.6552                                         !
 ! D63   D(36,5,7,8)            -1.2627                                         !
 ! D64   D(36,5,7,9)          -151.8555                                         !
 ! D65   D(36,5,7,22)           -1.7092                                         !
 ! D66   D(36,5,7,37)          -27.1431                                         !
 ! D67   D(39,5,7,8)            -2.9111                                         !
 ! D68   D(39,5,7,9)          -153.5038                                         !
 ! D69   D(39,5,7,22)           -3.3576                                         !
 ! D70   D(39,5,7,37)          -28.7915                                         !
 ! D71   D(6,5,10,1)           118.6378                                         !
 ! D72   D(6,5,10,24)          -26.2083                                         !
 ! D73   D(21,5,10,1)          123.9007                                         !
 ! D74   D(21,5,10,24)         -20.9454                                         !
 ! D75   D(36,5,10,1)          122.627                                          !
 ! D76   D(36,5,10,24)         -22.2191                                         !
 ! D77   D(39,5,10,1)          -25.7842                                         !
 ! D78   D(39,5,10,24)        -170.6303                                         !
 ! D79   D(5,6,7,21)          -166.3942                                         !
 ! D80   D(5,7,9,3)            -87.7926                                         !
 ! D81   D(5,7,9,11)          -161.2414                                         !
 ! D82   D(5,7,9,23)            94.5136                                         !
 ! D83   D(6,7,9,3)           -112.7502                                         !
 ! D84   D(6,7,9,11)           173.801                                          !
 ! D85   D(6,7,9,23)            69.556                                          !
 ! D86   D(8,7,9,3)            115.6082                                         !
 ! D87   D(8,7,9,11)            42.1594                                         !
 ! D88   D(8,7,9,23)           -62.0855                                         !
 ! D89   D(10,7,9,3)           -73.2551                                         !
 ! D90   D(10,7,9,11)         -146.7039                                         !
 ! D91   D(10,7,9,23)          109.0511                                         !
 ! D92   D(14,7,9,3)            83.6835                                         !
 ! D93   D(14,7,9,11)           10.2348                                         !
 ! D94   D(14,7,9,23)          -94.0102                                         !
 ! D95   D(21,7,9,3)          -136.3962                                         !
 ! D96   D(21,7,9,11)          150.155                                          !
 ! D97   D(21,7,9,23)           45.9101                                         !
 ! D98   D(22,7,9,3)           130.41                                           !
 ! D99   D(22,7,9,11)           56.9612                                         !
 ! D100  D(22,7,9,23)          -47.2838                                         !
 ! D101  D(37,7,9,3)           118.2725                                         !
 ! D102  D(37,7,9,11)           44.8237                                         !
 ! D103  D(37,7,9,23)          -59.4213                                         !
 ! D104  D(6,7,10,3)          -168.171                                          !
 ! D105  D(6,7,10,24)          119.4126                                         !
 ! D106  D(8,7,10,3)          -161.3244                                         !
 ! D107  D(8,7,10,24)          126.2591                                         !
 ! D108  D(9,7,10,3)            52.0498                                         !
 ! D109  D(9,7,10,24)          -20.3666                                         !
 ! D110  D(14,7,10,3)           10.2447                                         !
 ! D111  D(14,7,10,24)         -62.1717                                         !
 ! D112  D(21,7,10,3)         -169.3538                                         !
 ! D113  D(21,7,10,24)         118.2297                                         !
 ! D114  D(22,7,10,3)         -158.9063                                         !
 ! D115  D(22,7,10,24)         128.6772                                         !
 ! D116  D(37,7,10,3)          102.1544                                         !
 ! D117  D(37,7,10,24)          29.7379                                         !
 ! D118  D(6,7,14,15)           85.9469                                         !
 ! D119  D(6,7,14,17)          107.9578                                         !
 ! D120  D(6,7,14,26)          112.702                                          !
 ! D121  D(6,7,14,38)           64.5367                                         !
 ! D122  D(9,7,14,15)         -132.6968                                         !
 ! D123  D(9,7,14,17)         -110.6858                                         !
 ! D124  D(9,7,14,26)         -105.9417                                         !
 ! D125  D(9,7,14,38)         -154.107                                          !
 ! D126  D(10,7,14,15)         -90.607                                          !
 ! D127  D(10,7,14,17)         -68.5961                                         !
 ! D128  D(10,7,14,26)         -63.8519                                         !
 ! D129  D(10,7,14,38)        -112.0172                                         !
 ! D130  D(21,7,14,15)          88.8353                                         !
 ! D131  D(21,7,14,17)         110.8462                                         !
 ! D132  D(21,7,14,26)         115.5904                                         !
 ! D133  D(21,7,14,38)          67.4251                                         !
 ! D134  D(37,7,14,15)         114.3763                                         !
 ! D135  D(37,7,14,17)         136.3872                                         !
 ! D136  D(37,7,14,26)         141.1314                                         !
 ! D137  D(37,7,14,38)          92.9661                                         !
 ! D138  D(7,8,14,22)         -168.6854                                         !
 ! D139  D(7,9,11,4)            83.2326                                         !
 ! D140  D(7,9,11,12)           73.5064                                         !
 ! D141  D(7,9,11,13)           28.7324                                         !
 ! D142  D(7,9,11,17)           -8.1387                                         !
 ! D143  D(7,9,11,20)           92.7907                                         !
 ! D144  D(7,9,11,25)           85.0499                                         !
 ! D145  D(7,9,11,33)           84.9441                                         !
 ! D146  D(23,9,11,4)         -134.9724                                         !
 ! D147  D(23,9,11,12)        -144.6986                                         !
 ! D148  D(23,9,11,13)         170.5274                                         !
 ! D149  D(23,9,11,17)         133.6562                                         !
 ! D150  D(23,9,11,20)        -125.4143                                         !
 ! D151  D(23,9,11,25)        -133.1552                                         !
 ! D152  D(23,9,11,33)        -133.2609                                         !
 ! D153  D(4,11,13,18)         -83.7014                                         !
 ! D154  D(4,11,13,32)          16.9174                                         !
 ! D155  D(9,11,13,18)         -59.4508                                         !
 ! D156  D(9,11,13,32)          41.1679                                         !
 ! D157  D(20,11,13,18)        -96.4848                                         !
 ! D158  D(20,11,13,32)          4.134                                          !
 ! D159  D(33,11,13,18)       -141.4381                                         !
 ! D160  D(33,11,13,32)        -40.8193                                         !
 ! D161  D(3,11,17,14)         -34.558                                          !
 ! D162  D(3,11,17,27)        -146.715                                          !
 ! D163  D(4,11,17,14)         -46.8769                                         !
 ! D164  D(4,11,17,27)        -159.0339                                         !
 ! D165  D(9,11,17,14)         -16.9278                                         !
 ! D166  D(9,11,17,27)        -129.0848                                         !
 ! D167  D(12,11,17,14)       -121.4101                                         !
 ! D168  D(12,11,17,27)        126.4329                                         !
 ! D169  D(20,11,17,14)        -58.0999                                         !
 ! D170  D(20,11,17,27)       -170.2569                                         !
 ! D171  D(25,11,17,14)       -142.6793                                         !
 ! D172  D(25,11,17,27)        105.1637                                         !
 ! D173  D(33,11,17,14)       -104.9637                                         !
 ! D174  D(33,11,17,27)        142.8793                                         !
 ! D175  D(11,12,13,25)       -114.0864                                         !
 ! D176  D(12,13,17,14)         90.3493                                         !
 ! D177  D(12,13,17,27)       -132.1746                                         !
 ! D178  D(18,13,17,14)        -76.117                                          !
 ! D179  D(18,13,17,27)         61.3591                                         !
 ! D180  D(25,13,17,14)        109.6685                                         !
 ! D181  D(25,13,17,27)       -112.8554                                         !
 ! D182  D(31,13,17,14)        177.6183                                         !
 ! D183  D(31,13,17,27)        -44.9056                                         !
 ! D184  D(11,13,18,16)         63.3548                                         !
 ! D185  D(11,13,18,28)        -76.1881                                         !
 ! D186  D(12,13,18,16)         13.0712                                         !
 ! D187  D(12,13,18,28)       -126.4716                                         !
 ! D188  D(17,13,18,16)         80.3655                                         !
 ! D189  D(17,13,18,28)        -59.1773                                         !
 ! D190  D(25,13,18,16)       -177.1545                                         !
 ! D191  D(25,13,18,28)         43.3027                                         !
 ! D192  D(31,13,18,16)       -163.7087                                         !
 ! D193  D(31,13,18,28)         56.7484                                         !
 ! D194  D(32,13,18,16)        -42.3602                                         !
 ! D195  D(32,13,18,28)        178.097                                          !
 ! D196  D(8,14,16,18)        -170.5247                                         !
 ! D197  D(8,14,16,29)          70.5682                                         !
 ! D198  D(17,14,16,18)          4.6217                                         !
 ! D199  D(17,14,16,29)       -114.2854                                         !
 ! D200  D(22,14,16,18)       -160.557                                          !
 ! D201  D(22,14,16,29)         80.5358                                         !
 ! D202  D(38,14,16,18)        175.3281                                         !
 ! D203  D(38,14,16,29)         56.4209                                         !
 ! D204  D(7,14,17,11)         101.8603                                         !
 ! D205  D(7,14,17,13)           1.9539                                         !
 ! D206  D(7,14,17,27)        -135.5453                                         !
 ! D207  D(8,14,17,11)         148.1528                                         !
 ! D208  D(8,14,17,13)          48.2464                                         !
 ! D209  D(8,14,17,27)         -89.2528                                         !
 ! D210  D(15,14,17,11)        120.1885                                         !
 ! D211  D(15,14,17,13)         20.2821                                         !
 ! D212  D(15,14,17,27)       -117.2171                                         !
 ! D213  D(16,14,17,11)        138.1838                                         !
 ! D214  D(16,14,17,13)         38.2773                                         !
 ! D215  D(16,14,17,27)        -99.2218                                         !
 ! D216  D(22,14,17,11)        163.2066                                         !
 ! D217  D(22,14,17,13)         63.3002                                         !
 ! D218  D(22,14,17,27)        -74.199                                          !
 ! D219  D(26,14,17,11)         97.9662                                         !
 ! D220  D(26,14,17,13)         -1.9402                                         !
 ! D221  D(26,14,17,27)       -139.4394                                         !
 ! D222  D(38,14,17,11)        130.5472                                         !
 ! D223  D(38,14,17,13)         30.6408                                         !
 ! D224  D(38,14,17,27)       -106.8584                                         !
 ! D225  D(14,15,16,26)       -129.9795                                         !
 ! D226  D(14,16,18,13)        -45.6681                                         !
 ! D227  D(14,16,18,28)         95.4038                                         !
 ! D228  D(15,16,18,13)        -26.6292                                         !
 ! D229  D(15,16,18,28)        114.4427                                         !
 ! D230  D(26,16,18,13)         -2.2681                                         !
 ! D231  D(26,16,18,28)        138.8038                                         !
 ! D232  D(29,16,18,13)         90.0708                                         !
 ! D233  D(29,16,18,28)       -128.8573                                         !
 ! D234  D(30,16,18,13)       -143.2319                                         !
 ! D235  D(30,16,18,28)         -2.16                                           !
 --------------------------------------------------------------------------------
                          Input orientation:                          
 ---------------------------------------------------------------------
 Center     Atomic      Atomic             Coordinates (Angstroms)
 Number     Number       Type             X           Y           Z
 ---------------------------------------------------------------------
      1         14           0        4.463136   -1.927296   -0.982091
      2          7           0        2.797446   -2.260450   -0.488575
      3         14           0        1.633006   -1.116270    0.173612
      4          7           0        0.055511   -1.815117   -0.034519
      5         14           0        5.078741    1.149055   -0.329965
      6          7           0        3.617694    1.849160    0.384824
      7         14           0        2.072970    1.040914    0.631206
      8          7           0        0.856208    2.276682    0.857723
      9          7           0        1.933915   -0.330553    1.721274
     10          7           0        4.712275   -0.531607    0.073809
     11         14           0       -3.750173   -1.327345    1.805780
     12          7           0       -4.142255   -2.128299    0.094859
     13         14           0       -4.399110   -0.313497   -0.935827
     14         14           0       -2.411038    0.686016    1.365198
     15          7           0       -1.568578    0.912160   -0.504906
     16         14           0       -2.529751    1.757004   -1.840704
     17          7           0       -4.206821    0.287850    0.800021
     18          7           0       -4.181361    1.321109   -1.720356
     19          1           0        2.423804   -3.150054   -0.814950
     20          1           0       -0.060587   -2.721575   -0.473102
     21          1           0        3.622439    2.863174    0.480374
     22          1           0        1.067408    3.253902    0.685586
     23          1           0        1.968699   -0.549050    2.716470
     24          1           0        4.105486   -0.586049    0.896478
     25          1           0       -4.991518   -2.690146    0.174160
     26          1           0       -1.179350    0.011304   -0.813014
     27          1           0       -4.905365    0.967785    1.094679
     28          1           0       -4.820473    2.075572   -1.482348
     29          1           0       -1.853917    1.330870   -3.092837
     30          1           0       -2.299676    3.209012   -1.622096
     31          1           0       -5.796200   -0.657554   -1.298897
     32          1           0       -3.251833   -0.847211   -1.734852
     33          1           0       -3.434061   -2.735813   -0.316765
     34          1           0       -0.638357   -1.665477    0.698536
     35          1           0        3.604830   -5.452935   -3.476055
     36          1           0        5.729969    5.419666   -1.177495
     37          1           0        0.231858    2.180715    1.656508
     38          1           0       -0.742076    1.487530   -0.259320
     39          1           0        5.871674    4.691069   -1.220728
     40          1           0        3.998442   -4.859342   -3.262548
 ---------------------------------------------------------------------
                    Distance matrix (angstroms):
                    1          2          3          4          5
     1  Si   0.000000
     2  N    1.768918   0.000000
     3  Si   3.162759   1.761692   0.000000
     4  N    4.509726   2.814728   1.737872   0.000000
     5  Si   3.204399   4.105385   4.154320   5.840072   0.000000
     6  N    4.104248   4.280716   3.574545   5.127565   1.770799
     7  Si   4.138344   3.560587   2.248645   3.559529   3.157563
     8  N    5.836804   5.115320   3.547330   4.263805   4.529010
     9  N    4.031715   3.058369   1.761577   2.969030   4.035684
    10  N    1.767752   2.640406   3.135871   4.831623   1.766905
    11  Si   8.694286   7.000433   5.629134   4.255333   9.415078
    12  N    8.674847   6.965437   5.863792   4.211421   9.795320
    13  Si   9.008102   7.468674   6.185607   4.786530   9.609151
    14  Si   7.719678   6.264698   4.585020   3.781368   7.693164
    15  N    6.683696   5.397026   3.850332   3.208889   6.653839
    16  Si   7.950582   6.807880   5.444422   4.765075   7.780815
    17  N    9.124195   7.563998   6.038835   4.825598   9.393625
    18  N    9.264151   7.940315   6.582917   5.534351   9.365483
    19  H    2.383683   1.018589   2.395598   2.828417   5.076045
    20  H    4.621040   2.895035   2.421467   1.013657   6.435445
    21  H    5.078798   5.279299   4.459588   5.905463   2.390747
    22  H    6.415367   5.897438   4.436263   5.218951   4.642469
    23  H    4.669168   3.726663   2.626890   3.582060   4.672974
    24  H    2.335782   2.536328   2.629986   4.333551   2.337086
    25  H    9.555591   7.828909   6.808921   5.126570  10.789055
    26  H    5.968619   4.591409   3.186567   2.338109   6.378990
    27  H   10.023137   8.500676   6.924013   5.799131  10.086865
    28  H   10.122183   8.821641   7.387655   6.403818  10.009038
    29  H    7.414584   6.427670   5.368130   4.785025   7.465136
    30  H    8.516272   7.561781   6.115441   5.771410   7.768787
    31  H   10.342465   8.779330   7.587609   6.097633  11.066481
    32  H    7.826492   6.335948   5.251313   3.842721   8.680855
    33  H    7.966308   6.251973   5.342149   3.620008   9.357359
    34  H    5.377573   3.683473   2.395051   1.020400   6.454813
    35  H    4.403030   4.446220   6.001235   6.138042   7.460333
    36  H    7.457943   8.249757   7.831287   9.265417   4.402332
    37  H    6.460780   5.559458   3.877152   4.342504   5.338789
    38  H    6.267189   5.160245   3.550806   3.405020   5.831077
    39  H    6.770797   7.636135   7.323638   8.807117   3.737388
    40  H    3.743436   3.986422   5.604736   5.935838   6.772586
                    6          7          8          9         10
     6  N    0.000000
     7  Si   1.760721   0.000000
     8  N    2.834116   1.748984   0.000000
     9  N    3.061430   1.757414   2.950398   0.000000
    10  N    2.638728   3.122410   4.834280   3.236332   0.000000
    11  Si   8.148299   6.395098   5.925080   5.771447   8.674442
    12  N    8.724740   6.997186   6.706002   6.541939   8.997365
    13  Si   8.407756   6.795429   6.127334   6.867874   9.169748
    14  Si   6.217689   4.557524   3.669148   4.476475   7.341109
    15  N    5.344812   3.816832   3.098107   4.332167   6.470586
    16  Si   6.538544   5.273346   4.360768   6.080288   7.832627
    17  N    7.989563   6.327036   5.439949   6.240174   8.986054
    18  N    8.095424   6.687676   5.739052   7.208981   9.260040
    19  H    5.277970   4.447321   5.891066   3.823873   3.589325
    20  H    5.929369   4.464066   5.253017   3.809240   5.279705
    21  H    1.018517   2.396713   2.852788   3.819795   3.588534
    22  H    2.927067   2.431343   1.014493   3.830379   5.290501
    23  H    3.729232   2.624344   3.560526   1.019493   3.809353
    24  H    2.535739   2.616963   4.330651   2.336939   1.023689
    25  H    9.734896   8.002293   7.702761   7.478159   9.941476
    26  H    5.274862   3.704519   3.473730   4.028884   5.982680
    27  H    8.597863   6.994092   5.913128   6.989568   9.787203
    28  H    8.645245   7.284036   6.143377   7.853304  10.004613
    29  H    6.503944   5.419688   4.883263   6.346941   7.524051
    30  H    6.394700   5.375691   4.120478   6.452126   8.126239
    31  H    9.886351   8.278522   7.583883   8.305603  10.598501
    32  H    7.678141   6.125094   5.775479   6.253297   8.172997
    33  H    8.440465   6.744606   6.701562   6.225275   8.448305
    34  H    5.528568   3.831499   4.218967   3.073207   5.505017
    35  H    8.259973   7.834939   9.278122   7.486186   6.168261
    36  H    4.432951   5.984856   6.146056   7.475152   6.165964
    37  H    3.631941   2.395847   1.018371   3.034413   5.471358
    38  H    4.421910   2.986132   2.103582   3.793297   5.825618
    39  H    3.966695   5.584214   5.941728   7.026949   5.504215
    40  H    7.645410   7.326785   8.818906   7.043485   5.510910
                   11         12         13         14         15
    11  Si   0.000000
    12  N    1.929380   0.000000
    13  Si   2.994230   2.102806   0.000000
    14  Si   2.457849   3.539950   3.200964   0.000000
    15  N    3.887675   4.028390   3.114457   2.063533   0.000000
    16  Si   4.929451   4.630568   2.932624   3.382147   1.849857
    17  N    1.956766   2.517777   1.847095   1.924265   3.008808
    18  N    4.431012   3.898070   1.826154   3.613589   2.910531
    19  H    6.950431   6.707076   7.390049   6.545547   5.704106
    20  H    4.555242   4.163481   4.983547   4.529420   3.934346
    21  H    8.583272   9.238718   8.743118   6.475012   5.632397
    22  H    6.741791   7.513830   6.725930   4.376699   3.721485
    23  H    5.842996   6.834518   7.344641   4.746939   5.002473
    24  H    7.942779   8.428901   8.704010   6.656045   6.033532
    25  H    2.461776   1.021375   2.689141   4.413152   5.015402
    26  H    3.906302   3.765759   3.238431   2.591698   1.028577
    27  H    2.666038   3.341813   2.453758   2.524726   3.700799
    28  H    4.851512   4.540935   2.486741   3.980547   3.589392
    29  H    5.887134   5.231037   3.719495   4.538754   2.637067
    30  H    5.867948   5.901688   4.157723   3.911756   2.656717
    31  H    3.778077   2.615565   1.483932   4.512417   4.578996
    32  H    3.607624   2.404555   1.496508   3.559218   2.727911
    33  H    2.566886   1.019826   2.679958   3.947719   4.101601
    34  H    3.320199   3.585517   4.317668   3.019330   2.992958
    35  H    9.950595   9.155433   9.845285   9.864843   8.723893
    36  H   12.012293  12.492057  11.641555   9.754420   8.604579
    37  H    5.308987   6.335552   5.864057   3.050227   3.085857
    38  H    4.608342   4.976032   4.132223   2.463112   1.036566
    39  H   11.745681  12.186605  11.428730   9.556714   8.375554
    40  H    9.909792   9.219638   9.828388   9.656524   8.479772
                   16         17         18         19         20
    16  Si   0.000000
    17  N    3.456068   0.000000
    18  N    1.712397   2.724073   0.000000
    19  H    7.047631   7.641499   8.027407   0.000000
    20  H    5.293844   5.279085   5.905905   2.544141   0.000000
    21  H    6.667868   8.248138   8.253513   6.266857   6.757457
    22  H    4.643533   6.052111   6.088828   6.715808   6.190417
    23  H    6.806011   6.519987   7.810644   4.409451   4.360187
    24  H    7.550393   8.358675   8.897016   3.511575   4.877744
    25  H    5.467826   3.142596   4.509513   7.495122   4.973330
    26  H    2.434584   3.441502   3.398665   4.793424   2.972507
    27  H    3.857834   1.018381   2.928044   8.620905   6.288179
    28  H    2.340365   2.963398   1.017018   8.957239   6.832840
    29  H    1.485321   4.666732   2.701998   6.600481   5.147947
    30  H    1.486288   4.247004   2.667316   7.962441   6.442481
    31  H    4.097967   2.797386   2.588520   8.603210   6.151372
    32  H    2.704541   2.936996   2.359204   6.193720   3.910154
    33  H    4.829656   3.314650   4.357423   5.893587   3.377124
    34  H    4.662456   4.069363   5.227199   3.724438   1.679851
    35  H    9.606804  10.595439  10.468759   3.712084   5.469308
    36  H    9.059686  11.357196  10.739056   9.192511  10.015314
    37  H    4.476216   4.900855   5.623045   6.271350   5.352869
    38  H    2.401911   3.816529   3.740456   5.642580   4.269274
    39  H    8.920598  11.182479  10.614602   8.575294   9.523548
    40  H    9.402924  10.503541  10.367522   3.375187   5.369057
                   21         22         23         24         25
    21  H    0.000000
    22  H    2.592868   0.000000
    23  H    4.402074   4.404460   0.000000
    24  H    3.507651   4.900981   2.807062   0.000000
    25  H   10.253457   8.503167   7.713121   9.365065   0.000000
    26  H    5.732643   4.219973   4.762507   5.586474   4.775454
    27  H    8.757472   6.408409   7.223832   9.145989   3.772961
    28  H    8.703755   6.384006   8.403069   9.613312   5.048301
    29  H    6.716120   5.148657   7.203786   7.423186   6.056928
    30  H    6.293761   4.082238   7.152986   7.859503   6.728492
    31  H   10.211370   8.145353   8.742345  10.142394   2.636065
    32  H    8.119717   6.429113   6.867104   7.818072   3.172892
    33  H    9.043134   7.559406   6.570560   7.933360   1.633635
    34  H    6.221789   5.206736   3.480691   4.869127   4.502768
    35  H    9.209306   9.978316   8.066745   6.561729   9.739315
    36  H    3.704843   5.468188   8.058268   6.558118  13.510969
    37  H    3.653092   1.671097   3.404667   4.820542   7.294264
    38  H    4.635572   2.699472   4.511240   5.397634   5.974834
    39  H    3.360656   5.364742   7.628473   5.953986  13.207460
    40  H    8.590000   9.487015   7.645072   5.964058   9.865888
                   26         27         28         29         30
    26  H    0.000000
    27  H    4.293872   0.000000
    28  H    4.238748   2.806326   0.000000
    29  H    2.719170   5.194079   3.456690   0.000000
    30  H    3.483544   4.381048   2.767424   2.426766   0.000000
    31  H    4.690282   3.027296   2.907865   4.765883   5.223071
    32  H    2.425287   3.746281   3.326717   2.922726   4.168004
    33  H    3.588402   4.227712   5.141026   5.171203   6.191257
    34  H    2.321433   5.029747   6.020116   4.982990   5.648536
    35  H    7.735507  11.599167  11.473404   8.715778  10.645641
    36  H    8.781909  11.751270  11.071934   8.826217   8.340255
    37  H    3.577205   5.308287   5.948909   5.256327   4.267939
    38  H    1.636164   4.408676   4.298245   3.047877   2.691984
    39  H    8.472508  11.634798  11.010508   8.630208   8.314358
    40  H    7.518839  11.498635  11.359375   8.520425  10.366084
                   31         32         33         34         35
    31  H    0.000000
    32  H    2.588402   0.000000
    33  H    3.295974   2.368754   0.000000
    34  H    5.622187   3.663495   3.161078   0.000000
    35  H   10.775669   8.441464   8.179844   7.055260   0.000000
    36  H   13.030729  10.966182  12.297647   9.709497  11.314285
    37  H    7.288873   5.727631   6.442438   4.058100   9.797590
    38  H    5.588048   3.731902   5.008664   3.296923   8.798468
    39  H   12.835621  10.685282  11.940370   9.298912  10.636066
    40  H   10.837248   8.426004   8.272189   6.884102   0.743551
                   36         37         38         39         40
    36  H    0.000000
    37  H    6.982235   0.000000
    38  H    7.628374   2.258196   0.000000
    39  H    0.743507   6.810866   7.411387   0.000000
    40  H   10.630317   9.377989   8.471993   9.944264   0.000000
 Stoichiometry    H22N10Si8
 Framework group  C1[X(H22N10Si8)]
 Deg. of freedom   114
 Full point group                 C1      NOp   1
 Largest Abelian subgroup         C1      NOp   1
 Largest concise Abelian subgroup C1      NOp   1
                         Standard orientation:                         
 ---------------------------------------------------------------------
 Center     Atomic      Atomic             Coordinates (Angstroms)
 Number     Number       Type             X           Y           Z
 ---------------------------------------------------------------------
      1         14           0        4.478734    1.875057    0.963937
      2          7           0        2.808328    2.227878    0.500975
      3         14           0        1.633464    1.108657   -0.185028
      4          7           0        0.060237    1.803647    0.064259
      5         14           0        5.079024   -1.179433    0.203728
      6          7           0        3.608092   -1.852450   -0.516782
      7         14           0        2.062685   -1.033205   -0.718506
      8          7           0        0.840280   -2.258217   -0.971517
      9          7           0        1.914574    0.373755   -1.761114
     10          7           0        4.712189    0.514411   -0.140186
     11         14           0       -3.767573    1.384993   -1.746942
     12          7           0       -4.137934    2.129936   -0.006138
     13         14           0       -4.387508    0.282691    0.967100
     14         14           0       -2.428554   -0.644672   -1.388461
     15          7           0       -1.565224   -0.934165    0.463302
     16         14           0       -2.513108   -1.820530    1.781575
     17          7           0       -4.216708   -0.261503   -0.789727
     18          7           0       -4.164886   -1.377358    1.694776
     19          1           0        2.440713    3.107036    0.860785
     20          1           0       -0.048520    2.695397    0.533783
     21          1           0        3.609175   -2.862770   -0.645736
     22          1           0        1.050975   -3.241033   -0.834126
     23          1           0        1.938466    0.624874   -2.748907
     24          1           0        4.096122    0.597253   -0.953537
     25          1           0       -4.986629    2.695914   -0.057051
     26          1           0       -1.170204   -0.044795    0.796397
     27          1           0       -4.920310   -0.929852   -1.098522
     28          1           0       -4.808596   -2.122189    1.439453
     29          1           0       -1.821849   -1.437367    3.039161
     30          1           0       -2.289232   -3.265030    1.512598
     31          1           0       -5.779457    0.617588    1.357454
     32          1           0       -3.229776    0.787304    1.769944
     33          1           0       -3.423521    2.722025    0.417053
     34          1           0       -0.642389    1.679750   -0.665249
     35          1           0        3.658070    5.318378    3.582471
     36          1           0        5.729158   -5.477056    0.902502
     37          1           0        0.207032   -2.134623   -1.759427
     38          1           0       -0.743056   -1.502897    0.189343
     39          1           0        5.873192   -4.750587    0.968073
     40          1           0        4.047700    4.731305    3.344981
 ---------------------------------------------------------------------
 Rotational constants (GHZ):           0.3707447           0.1023917           0.0943813
 Standard basis: 6-31G(d) (6D, 7F)
 There are   346 symmetry adapted cartesian basis functions of A   symmetry.
 There are   346 symmetry adapted basis functions of A   symmetry.
   346 basis functions,   784 primitive gaussians,   346 cartesian basis functions
   102 alpha electrons      102 beta electrons
       nuclear repulsion energy      2585.6446534960 Hartrees.
 NAtoms=   40 NActive=   40 NUniq=   40 SFac= 1.00D+00 NAtFMM=   60 NAOKFM=F Big=F
 Integral buffers will be    131072 words long.
 Raffenetti 2 integral format.
 Two-electron integral symmetry is turned on.
 One-electron integrals computed using PRISM.
 NBasis=   346 RedAO= T EigKep=  2.75D-03  NBF=   346
 NBsUse=   346 1.00D-06 EigRej= -1.00D+00 NBFU=   346
 Initial guess from the checkpoint file:  "4planar.chk"
 B after Tr=     0.000000    0.000000   -0.000000
         Rot=    1.000000   -0.000000   -0.000000   -0.000000 Ang=   0.00 deg.
 SCF Done:  E(RB3LYP) =  -2876.88327343     a.u. after    1 cycles
            Convg  =    0.1017D-05                     1 Fock formations.
              S**2 =  0.0000                  -V/T =  2.0051
 UHFOpn skips out because SCF is already converged.
 QCSCF skips out because SCF is already converged.

 **********************************************************************

            Population analysis using the SCF Density.

 **********************************************************************

 Orbital symmetries:
       Occupied  (A) (A) (A) (A) (A) (A) (A) (A) (A) (A) (A) (A)
                 (A) (A) (A) (A) (A) (A) (A) (A) (A) (A) (A) (A)
                 (A) (A) (A) (A) (A) (A) (A) (A) (A) (A) (A) (A)
                 (A) (A) (A) (A) (A) (A) (A) (A) (A) (A) (A) (A)
                 (A) (A) (A) (A) (A) (A) (A) (A) (A) (A) (A) (A)
                 (A) (A) (A) (A) (A) (A) (A) (A) (A) (A) (A) (A)
                 (A) (A) (A) (A) (A) (A) (A) (A) (A) (A) (A) (A)
                 (A) (A) (A) (A) (A) (A) (A) (A) (A) (A) (A) (A)
                 (A) (A) (A) (A) (A) (A)
       Virtual   (A) (A) (A) (A) (A) (A) (A) (A) (A) (A) (A) (A)
                 (A) (A) (A) (A) (A) (A) (A) (A) (A) (A) (A) (A)
                 (A) (A) (A) (A) (A) (A) (A) (A) (A) (A) (A) (A)
                 (A) (A) (A) (A) (A) (A) (A) (A) (A) (A) (A) (A)
                 (A) (A) (A) (A) (A) (A) (A) (A) (A) (A) (A) (A)
                 (A) (A) (A) (A) (A) (A) (A) (A) (A) (A) (A) (A)
                 (A) (A) (A) (A) (A) (A) (A) (A) (A) (A) (A) (A)
                 (A) (A) (A) (A) (A) (A) (A) (A) (A) (A) (A) (A)
                 (A) (A) (A) (A) (A) (A) (A) (A) (A) (A) (A) (A)
                 (A) (A) (A) (A) (A) (A) (A) (A) (A) (A) (A) (A)
                 (A) (A) (A) (A) (A) (A) (A) (A) (A) (A) (A) (A)
                 (A) (A) (A) (A) (A) (A) (A) (A) (A) (A) (A) (A)
                 (A) (A) (A) (A) (A) (A) (A) (A) (A) (A) (A) (A)
                 (A) (A) (A) (A) (A) (A) (A) (A) (A) (A) (A) (A)
                 (A) (A) (A) (A) (A) (A) (A) (A) (A) (A) (A) (A)
                 (A) (A) (A) (A) (A) (A) (A) (A) (A) (A) (A) (A)
                 (A) (A) (A) (A) (A) (A) (A) (A) (A) (A) (A) (A)
                 (A) (A) (A) (A) (A) (A) (A) (A) (A) (A) (A) (A)
                 (A) (A) (A) (A) (A) (A) (A) (A) (A) (A) (A) (A)
                 (A) (A) (A) (A) (A) (A) (A) (A) (A) (A) (A) (A)
                 (A) (A) (A) (A)
 The electronic state is 1-A.
 Alpha  occ. eigenvalues --  -66.17252 -66.17185 -66.16514 -66.16296 -66.14887
 Alpha  occ. eigenvalues --  -66.14843 -66.11508 -66.10873 -14.36221 -14.33711
 Alpha  occ. eigenvalues --  -14.33370 -14.33104 -14.32810 -14.32749 -14.32691
 Alpha  occ. eigenvalues --  -14.31483 -14.31406 -14.29388  -5.31134  -5.31046
 Alpha  occ. eigenvalues --   -5.30752  -5.30154  -5.29058  -5.29014  -5.25697
 Alpha  occ. eigenvalues --   -5.25124  -3.67149  -3.67077  -3.67047  -3.66996
 Alpha  occ. eigenvalues --   -3.66927  -3.66827  -3.66776  -3.66610  -3.66481
 Alpha  occ. eigenvalues --   -3.66163  -3.66088  -3.65989  -3.65200  -3.65156
 Alpha  occ. eigenvalues --   -3.64870  -3.64827  -3.64518  -3.64475  -3.61788
 Alpha  occ. eigenvalues --   -3.61475  -3.61190  -3.61136  -3.60903  -3.60697
 Alpha  occ. eigenvalues --   -0.89177  -0.87700  -0.87030  -0.86404  -0.85259
 Alpha  occ. eigenvalues --   -0.83728  -0.83576  -0.82631  -0.81404  -0.81365
 Alpha  occ. eigenvalues --   -0.57235  -0.54869  -0.54309  -0.53180  -0.52971
 Alpha  occ. eigenvalues --   -0.51751  -0.51303  -0.50710  -0.49787  -0.49469
 Alpha  occ. eigenvalues --   -0.48752  -0.47820  -0.47302  -0.47062  -0.43929
 Alpha  occ. eigenvalues --   -0.43681  -0.43567  -0.43339  -0.41907  -0.41512
 Alpha  occ. eigenvalues --   -0.40185  -0.39430  -0.37909  -0.36798  -0.35936
 Alpha  occ. eigenvalues --   -0.34924  -0.34124  -0.33042  -0.31367  -0.29826
 Alpha  occ. eigenvalues --   -0.29644  -0.29096  -0.28714  -0.28142  -0.27510
 Alpha  occ. eigenvalues --   -0.27031  -0.23896  -0.23373  -0.22859  -0.22145
 Alpha  occ. eigenvalues --   -0.20417  -0.15376
 Alpha virt. eigenvalues --   -0.05207  -0.04921  -0.02098  -0.00475   0.01443
 Alpha virt. eigenvalues --    0.01759   0.02249   0.03414   0.03988   0.04293
 Alpha virt. eigenvalues --    0.05061   0.05315   0.05514   0.06509   0.06833
 Alpha virt. eigenvalues --    0.08051   0.08284   0.09074   0.09368   0.09596
 Alpha virt. eigenvalues --    0.10533   0.10905   0.11740   0.11882   0.12135
 Alpha virt. eigenvalues --    0.13266   0.13580   0.13823   0.14246   0.14360
 Alpha virt. eigenvalues --    0.14706   0.15334   0.15650   0.15964   0.16780
 Alpha virt. eigenvalues --    0.17462   0.17900   0.18648   0.19260   0.19896
 Alpha virt. eigenvalues --    0.20578   0.22125   0.23034   0.23266   0.24284
 Alpha virt. eigenvalues --    0.25187   0.25529   0.26623   0.27925   0.28043
 Alpha virt. eigenvalues --    0.28213   0.28849   0.29150   0.29672   0.30134
 Alpha virt. eigenvalues --    0.30846   0.31091   0.32157   0.33782   0.34369
 Alpha virt. eigenvalues --    0.34849   0.35641   0.35742   0.36582   0.37410
 Alpha virt. eigenvalues --    0.38339   0.38934   0.39280   0.39900   0.41658
 Alpha virt. eigenvalues --    0.43064   0.43582   0.44473   0.46594   0.49773
 Alpha virt. eigenvalues --    0.51427   0.53709   0.54384   0.56857   0.57319
 Alpha virt. eigenvalues --    0.58181   0.58744   0.59770   0.60413   0.60609
 Alpha virt. eigenvalues --    0.61548   0.62253   0.62630   0.63107   0.63886
 Alpha virt. eigenvalues --    0.65081   0.67037   0.68773   0.69171   0.69330
 Alpha virt. eigenvalues --    0.70047   0.70800   0.71711   0.72699   0.72795
 Alpha virt. eigenvalues --    0.74338   0.76392   0.78370   0.79035   0.79575
 Alpha virt. eigenvalues --    0.79992   0.80143   0.81181   0.82093   0.82639
 Alpha virt. eigenvalues --    0.83746   0.84185   0.84480   0.85345   0.85546
 Alpha virt. eigenvalues --    0.85982   0.86448   0.86896   0.87272   0.88141
 Alpha virt. eigenvalues --    0.89289   0.89409   0.90338   0.91439   0.91964
 Alpha virt. eigenvalues --    0.92314   0.92772   0.93152   0.93666   0.93932
 Alpha virt. eigenvalues --    0.94106   0.94365   0.95171   0.95828   0.96383
 Alpha virt. eigenvalues --    0.97817   0.97981   0.98383   0.99492   0.99672
 Alpha virt. eigenvalues --    1.00504   1.00956   1.01653   1.02661   1.04170
 Alpha virt. eigenvalues --    1.05066   1.05730   1.06396   1.07707   1.08176
 Alpha virt. eigenvalues --    1.08911   1.09269   1.11490   1.12898   1.13614
 Alpha virt. eigenvalues --    1.15281   1.15494   1.16003   1.17144   1.18939
 Alpha virt. eigenvalues --    1.19802   1.20019   1.20931   1.23160   1.24418
 Alpha virt. eigenvalues --    1.25856   1.28821   1.30658   1.34549   1.35267
 Alpha virt. eigenvalues --    1.36862   1.41006   1.47187   1.50280   1.56457
 Alpha virt. eigenvalues --    1.64646   1.69522   1.72417   1.72843   1.73053
 Alpha virt. eigenvalues --    1.73779   1.74508   1.74891   1.77021   1.78440
 Alpha virt. eigenvalues --    1.80091   1.80630   1.81952   1.83969   1.84528
 Alpha virt. eigenvalues --    1.89566   1.90643   1.92006   1.95550   1.96991
 Alpha virt. eigenvalues --    1.98704   2.05724   2.07860   2.10508   2.12137
 Alpha virt. eigenvalues --    2.13176   2.14624   2.15985   2.18512   2.18616
 Alpha virt. eigenvalues --    2.22164   2.22936   2.23438   2.24430   2.25984
 Alpha virt. eigenvalues --    2.28370   2.29938   2.33879   2.36581   2.37894
 Alpha virt. eigenvalues --    2.38344   2.40359   2.40743   2.41383   2.41810
 Alpha virt. eigenvalues --    2.42864   2.45158   2.46049   2.47063   2.47509
 Alpha virt. eigenvalues --    2.51155   2.97325   3.00154   3.00260   3.01141
 Alpha virt. eigenvalues --    3.01503   3.05711   3.08571   3.09208   3.67983
 Alpha virt. eigenvalues --    3.71877   3.74280   3.76753   3.78960   3.79949
 Alpha virt. eigenvalues --    3.83620   3.85128   3.87854   3.92759
          Condensed to atoms (all electrons):
               1          2          3          4          5          6
     1  Si  13.019761   0.266539  -0.005704  -0.000365   0.016183  -0.000801
     2  N    0.266539   7.071305   0.290010  -0.030417  -0.000716   0.000353
     3  Si  -0.005704   0.290010  12.274345   0.340382  -0.003374  -0.018583
     4  N   -0.000365  -0.030417   0.340382   7.032423   0.000017   0.000012
     5  Si   0.016183  -0.000716  -0.003374   0.000017  13.020631   0.264642
     6  N   -0.000801   0.000353  -0.018583   0.000012   0.264642   7.078631
     7  Si  -0.002185  -0.017190   0.294697  -0.015331  -0.008342   0.285091
     8  N    0.000013   0.000014  -0.020280   0.000268  -0.000306  -0.030652
     9  N   -0.003276  -0.007771   0.144757  -0.015596  -0.003048  -0.007663
    10  N    0.242861  -0.034311   0.010470   0.000025   0.244122  -0.034558
    11  Si  -0.000002  -0.000004  -0.001891  -0.005740  -0.000000   0.000000
    12  N   -0.000000  -0.000000  -0.000029  -0.000156   0.000000   0.000000
    13  Si   0.000000   0.000001  -0.000004   0.000130   0.000000   0.000000
    14  Si  -0.000001   0.000013  -0.004332  -0.007803   0.000002   0.000058
    15  N    0.000005   0.000000   0.003832  -0.012397   0.000009   0.000000
    16  Si   0.000002   0.000003   0.000263  -0.000087  -0.000000   0.000003
    17  N    0.000000   0.000000   0.000025   0.000034   0.000000   0.000000
    18  N    0.000000  -0.000000   0.000012  -0.000000   0.000000   0.000000
    19  H   -0.022018   0.288016  -0.012357   0.000746  -0.000072  -0.000007
    20  H   -0.000010  -0.000224  -0.015903   0.302888   0.000001  -0.000000
    21  H   -0.000060  -0.000007   0.002095  -0.000000  -0.021586   0.287339
    22  H    0.000003  -0.000000   0.001113  -0.000006   0.000017  -0.000028
    23  H    0.000198  -0.000456   0.007403  -0.000181   0.000164  -0.000478
    24  H   -0.010523  -0.003252  -0.011809   0.000024  -0.010032  -0.003317
    25  H   -0.000000  -0.000000  -0.000001  -0.000006  -0.000000   0.000000
    26  H   -0.000025  -0.000038   0.003567   0.036271   0.000008   0.000002
    27  H   -0.000000  -0.000000  -0.000004  -0.000001   0.000000   0.000000
    28  H   -0.000000  -0.000000  -0.000000  -0.000000  -0.000000   0.000000
    29  H    0.000000   0.000000   0.000079  -0.000002   0.000000   0.000000
    30  H    0.000000  -0.000000  -0.000015  -0.000000  -0.000000  -0.000000
    31  H    0.000000   0.000000   0.000000   0.000000   0.000000   0.000000
    32  H   -0.000000  -0.000000  -0.000060  -0.000108  -0.000000  -0.000000
    33  H    0.000000   0.000000   0.000012   0.000853   0.000000  -0.000000
    34  H    0.000021   0.000499  -0.011733   0.282506  -0.000001  -0.000001
    35  H   -0.000778  -0.000007  -0.000020   0.000000   0.000000   0.000000
    36  H    0.000000   0.000000  -0.000000   0.000000  -0.000775  -0.000008
    37  H   -0.000001  -0.000002   0.001093  -0.000041   0.000026   0.000247
    38  H    0.000009   0.000000  -0.002349  -0.000329  -0.000037  -0.000075
    39  H    0.000002  -0.000000   0.000000  -0.000000   0.003649  -0.000105
    40  H    0.003644  -0.000105  -0.000005  -0.000000   0.000002  -0.000000
               7          8          9         10         11         12
     1  Si  -0.002185   0.000013  -0.003276   0.242861  -0.000002  -0.000000
     2  N   -0.017190   0.000014  -0.007771  -0.034311  -0.000004  -0.000000
     3  Si   0.294697  -0.020280   0.144757   0.010470  -0.001891  -0.000029
     4  N   -0.015331   0.000268  -0.015596   0.000025  -0.005740  -0.000156
     5  Si  -0.008342  -0.000306  -0.003048   0.244122  -0.000000   0.000000
     6  N    0.285091  -0.030652  -0.007663  -0.034558   0.000000   0.000000
     7  Si  12.314150   0.318041   0.146823   0.010986   0.000400   0.000003
     8  N    0.318041   7.032043  -0.013723   0.000026   0.000236  -0.000000
     9  N    0.146823  -0.013723   7.246663  -0.015170  -0.000155   0.000000
    10  N    0.010986   0.000026  -0.015170   7.170709  -0.000000   0.000000
    11  Si   0.000400   0.000236  -0.000155  -0.000000  13.448031   0.117632
    12  N    0.000003  -0.000000   0.000000   0.000000   0.117632   7.246972
    13  Si   0.000103   0.000109   0.000008   0.000000  -0.017078   0.133149
    14  Si  -0.003126  -0.000593   0.004217   0.000001   0.211697   0.004143
    15  N    0.002787  -0.022778  -0.000110  -0.000000   0.001598  -0.000126
    16  Si   0.000795   0.002135   0.000011   0.000000  -0.005020  -0.003190
    17  N    0.000020   0.000004   0.000000   0.000000   0.101173  -0.090541
    18  N    0.000010  -0.000001  -0.000000   0.000000  -0.000261   0.003112
    19  H    0.002072  -0.000000  -0.000031   0.002153   0.000000  -0.000000
    20  H    0.001297  -0.000007   0.000408   0.000007   0.000714  -0.000007
    21  H   -0.011293   0.000876  -0.000044   0.002166   0.000000   0.000000
    22  H   -0.013936   0.303279   0.000579   0.000007  -0.000002  -0.000000
    23  H    0.006012  -0.000323   0.253262   0.000061   0.000027  -0.000000
    24  H   -0.013299   0.000038   0.045972   0.245072   0.000000  -0.000000
    25  H    0.000000   0.000000   0.000000   0.000000  -0.018243   0.293222
    26  H   -0.001533  -0.000106  -0.000099   0.000000  -0.006313   0.000130
    27  H    0.000002   0.000000   0.000000   0.000000  -0.013862   0.002519
    28  H    0.000000   0.000000  -0.000000   0.000000   0.000038  -0.000095
    29  H    0.000043  -0.000017  -0.000000  -0.000000  -0.000154   0.000007
    30  H   -0.000051  -0.000059  -0.000000  -0.000000   0.000085  -0.000000
    31  H    0.000000   0.000000   0.000000   0.000000   0.000023  -0.031043
    32  H   -0.000023  -0.000001  -0.000000  -0.000000   0.005532  -0.062585
    33  H   -0.000005  -0.000000   0.000000   0.000000  -0.009817   0.291014
    34  H   -0.000108  -0.000057  -0.000374   0.000001   0.017368   0.000071
    35  H   -0.000000   0.000000   0.000000   0.000000  -0.000000   0.000000
    36  H   -0.000021   0.000000   0.000000   0.000000  -0.000000   0.000000
[...]
     6  N    0.000000   0.000058   0.000000   0.000003   0.000000   0.000000
     7  Si   0.000103  -0.003126   0.002787   0.000795   0.000020   0.000010
     8  N    0.000109  -0.000593  -0.022778   0.002135   0.000004  -0.000001
     9  N    0.000008   0.004217  -0.000110   0.000011   0.000000  -0.000000
    10  N    0.000000   0.000001  -0.000000   0.000000   0.000000   0.000000
    11  Si  -0.017078   0.211697   0.001598  -0.005020   0.101173  -0.000261
    12  N    0.133149   0.004143  -0.000126  -0.003190  -0.090541   0.003112
    13  Si  11.891632  -0.020926   0.001110  -0.041085   0.257207   0.289835
    14  Si  -0.020926  13.547928   0.050826   0.010857   0.086678  -0.000520
    15  N    0.001110   0.050826   7.319311   0.223659  -0.008449  -0.023585
    16  Si  -0.041085   0.010857   0.223659  11.955695  -0.001375   0.432852
    17  N    0.257207   0.086678  -0.008449  -0.001375   7.327995  -0.055875
    18  N    0.289835  -0.000520  -0.023585   0.432852  -0.055875   7.005030
    19  H   -0.000000  -0.000004   0.000000  -0.000000  -0.000000   0.000000
    20  H    0.000059   0.000262   0.000104   0.000004  -0.000002  -0.000000
    21  H   -0.000000  -0.000005   0.000000  -0.000001  -0.000000   0.000000
    22  H   -0.000001   0.000626   0.000165   0.000212  -0.000000   0.000000
    23  H   -0.000000  -0.000259  -0.000002   0.000000  -0.000000  -0.000000
    24  H    0.000000   0.000004  -0.000000   0.000000  -0.000000   0.000000
    25  H   -0.005301   0.002819  -0.000001   0.000007   0.001699  -0.000069
    26  H   -0.002517  -0.011634   0.261796   0.000007   0.000660  -0.000360
    27  H   -0.010675  -0.020859   0.000267  -0.002418   0.285019   0.001504
    28  H   -0.009839  -0.001010   0.000299  -0.018425  -0.000195   0.295652
    29  H   -0.001727   0.000527  -0.028822   0.369957  -0.000045  -0.022077
    30  H    0.004113   0.000327  -0.015251   0.376592  -0.000213  -0.019367
    31  H    0.382205   0.001769   0.000031   0.003122  -0.014232  -0.030067
    32  H    0.382740  -0.008629  -0.007165   0.024333  -0.003760  -0.056397
    33  H   -0.007278  -0.008389   0.000037   0.000370   0.004290  -0.000058
    34  H   -0.000226   0.023469  -0.000471  -0.000191  -0.000390  -0.000000
    35  H   -0.000000  -0.000000  -0.000000  -0.000000  -0.000000  -0.000000
    36  H   -0.000000  -0.000000   0.000000  -0.000000  -0.000000   0.000000
    37  H   -0.000027   0.019409  -0.000829   0.000226  -0.000016  -0.000000
    38  H    0.001511  -0.020796   0.253730  -0.003158   0.000503   0.000053
    39  H    0.000000  -0.000000   0.000000   0.000000   0.000000  -0.000000
    40  H    0.000000  -0.000000   0.000000   0.000000   0.000000  -0.000000
              19         20         21         22         23         24
     1  Si  -0.022018  -0.000010  -0.000060   0.000003   0.000198  -0.010523
     2  N    0.288016  -0.000224  -0.000007  -0.000000  -0.000456  -0.003252
     3  Si  -0.012357  -0.015903   0.002095   0.001113   0.007403  -0.011809
     4  N    0.000746   0.302888  -0.000000  -0.000006  -0.000181   0.000024
     5  Si  -0.000072   0.000001  -0.021586   0.000017   0.000164  -0.010032
     6  N   -0.000007  -0.000000   0.287339  -0.000028  -0.000478  -0.003317
     7  Si   0.002072   0.001297  -0.011293  -0.013936   0.006012  -0.013299
     8  N   -0.000000  -0.000007   0.000876   0.303279  -0.000323   0.000038
     9  N   -0.000031   0.000408  -0.000044   0.000579   0.253262   0.045972
    10  N    0.002153   0.000007   0.002166   0.000007   0.000061   0.245072
    11  Si   0.000000   0.000714   0.000000  -0.000002   0.000027   0.000000
    12  N   -0.000000  -0.000007   0.000000  -0.000000  -0.000000  -0.000000
    13  Si  -0.000000   0.000059  -0.000000  -0.000001  -0.000000   0.000000
    14  Si  -0.000004   0.000262  -0.000005   0.000626  -0.000259   0.000004
    15  N    0.000000   0.000104   0.000000   0.000165  -0.000002  -0.000000
    16  Si  -0.000000   0.000004  -0.000001   0.000212   0.000000   0.000000
    17  N   -0.000000  -0.000002  -0.000000  -0.000000  -0.000000  -0.000000
    18  N    0.000000  -0.000000   0.000000   0.000000  -0.000000   0.000000
    19  H    0.406390   0.001775   0.000000   0.000000   0.000038  -0.000109
    20  H    0.001775   0.404894   0.000000   0.000000   0.000036  -0.000015
    21  H    0.000000   0.000000   0.404678   0.001375   0.000039  -0.000118
    22  H    0.000000   0.000000   0.001375   0.396917   0.000020  -0.000012
    23  H    0.000038   0.000036   0.000039   0.000020   0.436427  -0.003049
    24  H   -0.000109  -0.000015  -0.000118  -0.000012  -0.003049   0.418446
    25  H   -0.000000   0.000002  -0.000000  -0.000000   0.000000   0.000000
    26  H   -0.000001  -0.000441   0.000000  -0.000015  -0.000003   0.000001
    27  H   -0.000000   0.000000   0.000000  -0.000000  -0.000000  -0.000000
    28  H   -0.000000   0.000000  -0.000000  -0.000000   0.000000   0.000000
    29  H    0.000000  -0.000000   0.000000  -0.000000  -0.000000  -0.000000
    30  H    0.000000   0.000000  -0.000000   0.000014  -0.000000  -0.000000
    31  H   -0.000000   0.000000  -0.000000  -0.000000  -0.000000   0.000000
    32  H   -0.000000   0.000045   0.000000   0.000000   0.000000  -0.000000
    33  H   -0.000000   0.000141  -0.000000   0.000000  -0.000000   0.000000
    34  H    0.000007  -0.017531   0.000000   0.000001   0.000147  -0.000005
    35  H    0.000132  -0.000000  -0.000000  -0.000000  -0.000000  -0.000000
    36  H   -0.000000  -0.000000   0.000134   0.000000  -0.000000  -0.000000
    37  H    0.000000   0.000001   0.000041  -0.018155   0.000337  -0.000009
    38  H    0.000000  -0.000018   0.000001  -0.000962  -0.000002   0.000002
    39  H    0.000000   0.000000   0.000272  -0.000000   0.000000   0.000000
    40  H    0.000260  -0.000000   0.000000   0.000000   0.000000   0.000000
              25         26         27         28         29         30
     1  Si  -0.000000  -0.000025  -0.000000  -0.000000   0.000000   0.000000
     2  N   -0.000000  -0.000038  -0.000000  -0.000000   0.000000  -0.000000
     3  Si  -0.000001   0.003567  -0.000004  -0.000000   0.000079  -0.000015
     4  N   -0.000006   0.036271  -0.000001  -0.000000  -0.000002  -0.000000
     5  Si  -0.000000   0.000008   0.000000  -0.000000   0.000000  -0.000000
     6  N    0.000000   0.000002   0.000000   0.000000   0.000000  -0.000000
     7  Si   0.000000  -0.001533   0.000002   0.000000   0.000043  -0.000051
     8  N    0.000000  -0.000106   0.000000   0.000000  -0.000017  -0.000059
     9  N    0.000000  -0.000099   0.000000  -0.000000  -0.000000  -0.000000
    10  N    0.000000   0.000000   0.000000   0.000000  -0.000000  -0.000000
    11  Si  -0.018243  -0.006313  -0.013862   0.000038  -0.000154   0.000085
    12  N    0.293222   0.000130   0.002519  -0.000095   0.000007  -0.000000
    13  Si  -0.005301  -0.002517  -0.010675  -0.009839  -0.001727   0.004113
    14  Si   0.002819  -0.011634  -0.020859  -0.001010   0.000527   0.000327
    15  N   -0.000001   0.261796   0.000267   0.000299  -0.028822  -0.015251
    16  Si   0.000007   0.000007  -0.002418  -0.018425   0.369957   0.376592
    17  N    0.001699   0.000660   0.285019  -0.000195  -0.000045  -0.000213
    18  N   -0.000069  -0.000360   0.001504   0.295652  -0.022077  -0.019367
    19  H   -0.000000  -0.000001  -0.000000  -0.000000   0.000000   0.000000
    20  H    0.000002  -0.000441   0.000000   0.000000  -0.000000   0.000000
    21  H   -0.000000   0.000000   0.000000  -0.000000   0.000000  -0.000000
    22  H   -0.000000  -0.000015  -0.000000  -0.000000  -0.000000   0.000014
    23  H    0.000000  -0.000003  -0.000000   0.000000  -0.000000  -0.000000
    24  H    0.000000   0.000001  -0.000000   0.000000  -0.000000  -0.000000
    25  H    0.406543  -0.000016   0.000130   0.000006  -0.000000   0.000000
    26  H   -0.000016   0.344102  -0.000083   0.000025  -0.001258   0.000739
    27  H    0.000130  -0.000083   0.406473   0.001084  -0.000001   0.000005
    28  H    0.000006   0.000025   0.001084   0.415497   0.000989  -0.001742
    29  H   -0.000000  -0.001258  -0.000001   0.000989   0.789111  -0.022916
    30  H    0.000000   0.000739   0.000005  -0.001742  -0.022916   0.766372
    31  H   -0.000076  -0.000007  -0.000250  -0.000095   0.000013  -0.000012
    32  H    0.001965   0.002874   0.000346   0.002942  -0.001447   0.000081
    33  H   -0.027939   0.000386  -0.000163  -0.000000   0.000002  -0.000000
    34  H    0.000024  -0.005573   0.000014   0.000000  -0.000004   0.000000
    35  H    0.000000   0.000000   0.000000   0.000000  -0.000000   0.000000
    36  H    0.000000   0.000000  -0.000000  -0.000000  -0.000000  -0.000000
    37  H   -0.000000   0.000164  -0.000002  -0.000000  -0.000001  -0.000007
    38  H    0.000000  -0.022234   0.000015   0.000007  -0.000766  -0.000549
    39  H    0.000000  -0.000000   0.000000   0.000000   0.000000  -0.000000
    40  H   -0.000000  -0.000000  -0.000000  -0.000000   0.000000  -0.000000
              31         32         33         34         35         36
     1  Si   0.000000  -0.000000   0.000000   0.000021  -0.000778   0.000000
     2  N    0.000000  -0.000000   0.000000   0.000499  -0.000007   0.000000
     3  Si   0.000000  -0.000060   0.000012  -0.011733  -0.000020  -0.000000
     4  N    0.000000  -0.000108   0.000853   0.282506   0.000000   0.000000
     5  Si   0.000000  -0.000000   0.000000  -0.000001   0.000000  -0.000775
     6  N    0.000000  -0.000000  -0.000000  -0.000001   0.000000  -0.000008
     7  Si   0.000000  -0.000023  -0.000005  -0.000108  -0.000000  -0.000021
     8  N    0.000000  -0.000001  -0.000000  -0.000057   0.000000   0.000000
     9  N    0.000000  -0.000000   0.000000  -0.000374   0.000000   0.000000
    10  N    0.000000  -0.000000   0.000000   0.000001   0.000000   0.000000
    11  Si   0.000023   0.005532  -0.009817   0.017368  -0.000000  -0.000000
    12  N   -0.031043  -0.062585   0.291014   0.000071   0.000000   0.000000
    13  Si   0.382205   0.382740  -0.007278  -0.000226  -0.000000  -0.000000
    14  Si   0.001769  -0.008629  -0.008389   0.023469  -0.000000  -0.000000
    15  N    0.000031  -0.007165   0.000037  -0.000471  -0.000000   0.000000
    16  Si   0.003122   0.024333   0.000370  -0.000191  -0.000000  -0.000000
    17  N   -0.014232  -0.003760   0.004290  -0.000390  -0.000000  -0.000000
    18  N   -0.030067  -0.056397  -0.000058  -0.000000  -0.000000   0.000000
    19  H   -0.000000  -0.000000  -0.000000   0.000007   0.000132  -0.000000
    20  H    0.000000   0.000045   0.000141  -0.017531  -0.000000  -0.000000
    21  H   -0.000000   0.000000  -0.000000   0.000000  -0.000000   0.000134
    22  H   -0.000000   0.000000   0.000000   0.000001  -0.000000   0.000000
    23  H   -0.000000   0.000000  -0.000000   0.000147  -0.000000  -0.000000
    24  H    0.000000  -0.000000   0.000000  -0.000005  -0.000000  -0.000000
    25  H   -0.000076   0.001965  -0.027939   0.000024   0.000000   0.000000
    26  H   -0.000007   0.002874   0.000386  -0.005573   0.000000   0.000000
    27  H   -0.000250   0.000346  -0.000163   0.000014   0.000000  -0.000000
    28  H   -0.000095   0.002942  -0.000000   0.000000   0.000000  -0.000000
    29  H    0.000013  -0.001447   0.000002  -0.000004  -0.000000  -0.000000
    30  H   -0.000012   0.000081  -0.000000   0.000000   0.000000  -0.000000
    31  H    0.768227  -0.004294   0.000361   0.000000  -0.000000  -0.000000
    32  H   -0.004294   0.855237   0.002907   0.000089   0.000000   0.000000
    33  H    0.000361   0.002907   0.427097  -0.000523  -0.000000   0.000000
    34  H    0.000000   0.000089  -0.000523   0.347220  -0.000000  -0.000000
    35  H   -0.000000   0.000000  -0.000000  -0.000000   0.617520  -0.000000
    36  H   -0.000000   0.000000   0.000000  -0.000000  -0.000000   0.616909
    37  H   -0.000000   0.000001   0.000000  -0.000010  -0.000000  -0.000000
    38  H    0.000000   0.000404  -0.000003   0.000026   0.000000   0.000000
    39  H    0.000000  -0.000000  -0.000000   0.000000   0.000000   0.399764
    40  H    0.000000  -0.000000   0.000000   0.000000   0.399752   0.000000
              37         38         39         40
     1  Si  -0.000001   0.000009   0.000002   0.003644
     2  N   -0.000002   0.000000  -0.000000  -0.000105
     3  Si   0.001093  -0.002349   0.000000  -0.000005
     4  N   -0.000041  -0.000329  -0.000000  -0.000000
     5  Si   0.000026  -0.000037   0.003649   0.000002
     6  N    0.000247  -0.000075  -0.000105  -0.000000
     7  Si  -0.009110   0.003566  -0.000004   0.000000
     8  N    0.293230   0.050293  -0.000000  -0.000000
     9  N   -0.001561  -0.000393  -0.000000  -0.000000
    10  N    0.000001   0.000001  -0.000002  -0.000001
    11  Si  -0.000220   0.000809   0.000000   0.000000
    12  N    0.000000  -0.000012  -0.000000  -0.000000
    13  Si  -0.000027   0.001511   0.000000   0.000000
    14  Si   0.019409  -0.020796  -0.000000  -0.000000
    15  N   -0.000829   0.253730   0.000000   0.000000
    16  Si   0.000226  -0.003158   0.000000   0.000000
    17  N   -0.000016   0.000503   0.000000   0.000000
    18  N   -0.000000   0.000053  -0.000000  -0.000000
    19  H    0.000000   0.000000   0.000000   0.000260
    20  H    0.000001  -0.000018   0.000000  -0.000000
    21  H    0.000041   0.000001   0.000272   0.000000
    22  H   -0.018155  -0.000962  -0.000000   0.000000
    23  H    0.000337  -0.000002   0.000000   0.000000
    24  H   -0.000009   0.000002   0.000000   0.000000
    25  H   -0.000000   0.000000   0.000000  -0.000000
    26  H    0.000164  -0.022234  -0.000000  -0.000000
    27  H   -0.000002   0.000015   0.000000  -0.000000
    28  H   -0.000000   0.000007   0.000000  -0.000000
    29  H   -0.000001  -0.000766   0.000000   0.000000
    30  H   -0.000007  -0.000549  -0.000000  -0.000000
    31  H   -0.000000   0.000000   0.000000   0.000000
    32  H    0.000001   0.000404  -0.000000  -0.000000
    33  H    0.000000  -0.000003  -0.000000   0.000000
    34  H   -0.000010   0.000026   0.000000   0.000000
    35  H   -0.000000   0.000000   0.000000   0.399752
    36  H   -0.000000   0.000000   0.399764   0.000000
    37  H    0.349368  -0.005205   0.000000   0.000000
    38  H   -0.005205   0.313893  -0.000000  -0.000000
    39  H    0.000000  -0.000000   0.580180   0.000000
    40  H    0.000000  -0.000000   0.000000   0.579611
 Mulliken charges:
               1
     1  Si   0.496504
     2  N   -0.822254
     3  Si   0.734300
     4  N   -0.908011
     5  Si   0.498815
     6  N   -0.820103
     7  Si   0.708657
     8  N   -0.911702
     9  N   -0.773686
    10  N   -0.844629
    11  Si   0.173399
    12  N   -0.904191
    13  Si   0.772771
    14  Si   0.143257
    15  N   -0.999583
    16  Si   0.673844
    17  N   -0.890213
    18  N   -0.819421
    19  H    0.333009
    20  H    0.321521
    21  H    0.334099
    22  H    0.328790
    23  H    0.300580
    24  H    0.345988
    25  H    0.345236
    26  H    0.401523
    27  H    0.350940
    28  H    0.314862
    29  H   -0.081490
    30  H   -0.088146
    31  H   -0.075676
    32  H   -0.135024
    33  H    0.326708
    34  H    0.365732
    35  H   -0.016601
    36  H   -0.016004
    37  H    0.371052
    38  H    0.432065
    39  H    0.016243
    40  H    0.016843
 Sum of Mulliken charges =  -0.00000
 Mulliken charges with hydrogens summed into heavy atoms:
               1
     1  Si   0.496746
     2  N   -0.489245
     3  Si   0.734300
     4  N   -0.220758
     5  Si   0.499054
     6  N   -0.486004
     7  Si   0.708657
     8  N   -0.211860
     9  N   -0.473106
    10  N   -0.498640
    11  Si   0.173399
    12  N   -0.232248
    13  Si   0.562071
    14  Si   0.143257
    15  N   -0.165995
    16  Si   0.504207
    17  N   -0.539274
    18  N   -0.504559
 Electronic spatial extent (au):  <R**2>=          11720.3135
 Charge=             -0.0000 electrons
 Dipole moment (field-independent basis, Debye):
    X=             -0.9562    Y=             -0.4370    Z=              0.5680  Tot=              1.1950
 Quadrupole moment (field-independent basis, Debye-Ang):
   XX=           -192.6331   YY=           -149.0320   ZZ=           -183.3429
   XY=             -2.8210   XZ=            -16.1143   YZ=              6.6319
 Traceless Quadrupole moment (field-independent basis, Debye-Ang):
   XX=            -17.6304   YY=             25.9707   ZZ=             -8.3402
   XY=             -2.8210   XZ=            -16.1143   YZ=              6.6319
 Octapole moment (field-independent basis, Debye-Ang**2):
  XXX=           -202.3658  YYY=              3.7455  ZZZ=             -7.7355  XYY=            -25.4328
  XXY=            -28.9880  XXZ=            -32.9844  XZZ=             55.6816  YZZ=            -10.9929
  YYZ=              6.1663  XYZ=            -21.7030
 Hexadecapole moment (field-independent basis, Debye-Ang**3):
 XXXX=         -13106.2686 YYYY=          -2574.8546 ZZZZ=          -1737.8403 XXXY=             99.7299
 XXXZ=           -368.7432 YYYX=           -128.6698 YYYZ=             79.6315 ZZZX=           -212.3572
 ZZZY=             27.8322 XXYY=          -2456.6184 XXZZ=          -2611.4036 YYZZ=           -794.6364
 XXYZ=             75.0782 YYXZ=           -162.2822 ZZXY=             33.3481
 N-N= 2.585644653496D+03 E-N=-1.199207010522D+04  KE= 2.862383691209D+03
 Unable to Open any file for archive entry.
 1\1\GINC-HAMILTON\SP\RB3LYP\6-31G(d)\H22N10Si8\CPARISH\14-May-2025\0\\
 # b3lyp/6-31g* SCF=YQC guess=check geom=check\\Title\\0,1\Si,0,4.46313
 56651,-1.9272964176,-0.9820912164\N,0,2.7974459602,-2.2604501961,-0.48
 85745351\Si,0,1.6330064386,-1.1162699276,0.1736122581\N,0,0.0555110907
 ,-1.815117034,-0.0345189944\Si,0,5.0787407648,1.1490547214,-0.32996494
 65\N,0,3.6176942729,1.8491603575,0.3848243482\Si,0,2.0729702555,1.0409
 142383,0.6312064172\N,0,0.8562078339,2.2766824282,0.8577232345\N,0,1.9
 339154509,-0.330552685,1.721273571\N,0,4.7122747227,-0.5316065803,0.07
 38091593\Si,0,-3.7501733336,-1.3273451375,1.8057799481\N,0,-4.14225540
 67,-2.1282993701,0.0948586238\Si,0,-4.3991103646,-0.3134968592,-0.9358
 267017\Si,0,-2.4110382141,0.6860164945,1.3651976802\N,0,-1.5685781158,
 0.9121602531,-0.504906412\Si,0,-2.5297511676,1.7570042466,-1.840704474
 5\N,0,-4.2068209155,0.2878497892,0.8000208095\N,0,-4.1813610648,1.3211
 088772,-1.7203560103\H,0,2.4238043853,-3.1500535977,-0.8149496651\H,0,
 -0.0605869717,-2.7215749762,-0.473102208\H,0,3.6224388555,2.863174392,
 0.4803738236\H,0,1.0674078383,3.2539023801,0.6855863683\H,0,1.96869909
 9,-0.5490504872,2.7164697991\H,0,4.1054860304,-0.5860487108,0.89647751
 18\H,0,-4.9915176261,-2.6901455911,0.1741602932\H,0,-1.1793504804,0.01
 13039626,-0.8130143196\H,0,-4.9053650964,0.9677852828,1.09467876\H,0,-
 4.8204726312,2.0755721434,-1.482347663\H,0,-1.8539170391,1.3308703229,
 -3.0928368111\H,0,-2.2996755442,3.2090119189,-1.6220962129\H,0,-5.7961
 996095,-0.6575540847,-1.2988974971\H,0,-3.2518330254,-0.8472105547,-1.
 7348522771\H,0,-3.4340607881,-2.7358127191,-0.3167648079\H,0,-0.638357
 3703,-1.6654769974,0.6985362866\H,0,3.604829576,-5.4529349449,-3.47605
 54813\H,0,5.7299689236,5.4196660506,-1.1774945034\H,0,0.2318578497,2.1
 807149077,1.656508447\H,0,-0.7420755078,1.4875304408,-0.2593200272\H,0
 ,5.8716743774,4.6910693411,-1.2207279551\H,0,3.9984417294,-4.859342052
 ,-3.2625476915\\Version=ES64L-G16RevC.02\State=1-A\HF=-2876.8832734\RM
 SD=4.559e-09\Dipole=-0.378405,0.1654065,-0.2246665\Quadrupole=-12.8201
 786,19.5927745,-6.7725959,2.6199242,11.9879683,4.0199818\PG=C01 [X(H22
 N10Si8)]\\@
 The archive entry for this job was punched.


 A MAN BEGINS CUTTING HIS WISDOM TEETH THE 1ST
 TIME HE BITES OFF MORE THAN HE CAN CHEW.
 Job cpu time:       0 days  0 hours  0 minutes 36.6 seconds.
 Elapsed time:       0 days  0 hours  0 minutes  5.7 seconds.
 File lengths (MBytes):  RWF=     46 Int=      0 D2E=      0 Chk=     23 Scr=      1
 Normal termination of Gaussian 16 at Wed May 14 17:35:32 2025.
