[Molden Format]
[Atoms] AU
  O     1    8     0.0000000000    0.0000000000   -2.2024593600        
  C     2    6     0.0000000000   -2.0802834200   -0.6649831500        
  C     3    6     0.0000000000    2.0802834200   -0.6649831500        
  C     4    6     0.0000000000   -1.2570207400    1.7897024000        
  C     5    6     0.0000000000    1.2570207400    1.7897024000        
  H     6    1     0.0000000000   -3.8984852700   -1.5908381000        
  H     7    1     0.0000000000    3.8984852700   -1.5908381000        
[5D7F]
[GTO]
  1  0
   s     9 1.00
  0.117200D+05  0.710000D-03
  0.175900D+04  0.547000D-02
  0.400800D+03  0.278370D-01
  0.113700D+03  0.104800D+00
  0.370300D+02  0.283062D+00
  0.132700D+02  0.448719D+00
  0.502500D+01  0.270952D+00
  0.101300D+01  0.154580D-01
  0.302300D+00 -0.258500D-02
   s     9 1.00
  0.117200D+05 -0.160000D-03
  0.175900D+04 -0.126300D-02
  0.400800D+03 -0.626700D-02
  0.113700D+03 -0.257160D-01
  0.370300D+02 -0.709240D-01
  0.132700D+02 -0.165411D+00
  0.502500D+01 -0.116955D+00
  0.101300D+01  0.557368D+00
  0.302300D+00  0.572759D+00
   s     1 1.00
  0.302300D+00  0.100000D+01
   p     4 1.00
  0.177000D+02  0.430180D-01
  0.385400D+01  0.228913D+00
  0.104600D+01  0.508728D+00
  0.275300D+00  0.460531D+00
   p     1 1.00
  0.275300D+00  0.100000D+01
   d     1 1.00
  0.118500D+01  0.100000D+01
  
  2  0
   s     9 1.00
  0.666500D+04  0.692000D-03
  0.100000D+04  0.532900D-02
  0.228000D+03  0.270770D-01
  0.647100D+02  0.101718D+00
  0.210600D+02  0.274740D+00
  0.749500D+01  0.448564D+00
  0.279700D+01  0.285074D+00
  0.521500D+00  0.152040D-01
  0.159600D+00 -0.319100D-02
   s     9 1.00
  0.666500D+04 -0.146000D-03
  0.100000D+04 -0.115400D-02
  0.228000D+03 -0.572500D-02
  0.647100D+02 -0.233120D-01
  0.210600D+02 -0.639550D-01
  0.749500D+01 -0.149981D+00
  0.279700D+01 -0.127262D+00
  0.521500D+00  0.544529D+00
  0.159600D+00  0.580496D+00
   s     1 1.00
  0.159600D+00  0.100000D+01
   p     4 1.00
  0.943900D+01  0.381090D-01
  0.200200D+01  0.209480D+00
  0.545600D+00  0.508557D+00
  0.151700D+00  0.468842D+00
   p     1 1.00
  0.151700D+00  0.100000D+01
   d     1 1.00
  0.550000D+00  0.100000D+01
  
  3  0
   s     9 1.00
  0.666500D+04  0.692000D-03
  0.100000D+04  0.532900D-02
  0.228000D+03  0.270770D-01
  0.647100D+02  0.101718D+00
  0.210600D+02  0.274740D+00
  0.749500D+01  0.448564D+00
  0.279700D+01  0.285074D+00
  0.521500D+00  0.152040D-01
  0.159600D+00 -0.319100D-02
   s     9 1.00
  0.666500D+04 -0.146000D-03
  0.100000D+04 -0.115400D-02
  0.228000D+03 -0.572500D-02
  0.647100D+02 -0.233120D-01
  0.210600D+02 -0.639550D-01
  0.749500D+01 -0.149981D+00
  0.279700D+01 -0.127262D+00
  0.521500D+00  0.544529D+00
  0.159600D+00  0.580496D+00
   s     1 1.00
  0.159600D+00  0.100000D+01
   p     4 1.00
  0.943900D+01  0.381090D-01
  0.200200D+01  0.209480D+00
  0.545600D+00  0.508557D+00
  0.151700D+00  0.468842D+00
   p     1 1.00
  0.151700D+00  0.100000D+01
   d     1 1.00
  0.550000D+00  0.100000D+01
  
  4  0
   s     9 1.00
  0.666500D+04  0.692000D-03
  0.100000D+04  0.532900D-02
  0.228000D+03  0.270770D-01
  0.647100D+02  0.101718D+00
  0.210600D+02  0.274740D+00
  0.749500D+01  0.448564D+00
  0.279700D+01  0.285074D+00
  0.521500D+00  0.152040D-01
  0.159600D+00 -0.319100D-02
   s     9 1.00
  0.666500D+04 -0.146000D-03
  0.100000D+04 -0.115400D-02
  0.228000D+03 -0.572500D-02
  0.647100D+02 -0.233120D-01
  0.210600D+02 -0.639550D-01
  0.749500D+01 -0.149981D+00
  0.279700D+01 -0.127262D+00
  0.521500D+00  0.544529D+00
  0.159600D+00  0.580496D+00
   s     1 1.00
  0.159600D+00  0.100000D+01
   p     4 1.00
  0.943900D+01  0.381090D-01
  0.200200D+01  0.209480D+00
  0.545600D+00  0.508557D+00
  0.151700D+00  0.468842D+00
   p     1 1.00
  0.151700D+00  0.100000D+01
   d     1 1.00
  0.550000D+00  0.100000D+01
  
  5  0
   s     9 1.00
  0.666500D+04  0.692000D-03
  0.100000D+04  0.532900D-02
  0.228000D+03  0.270770D-01
  0.647100D+02  0.101718D+00
  0.210600D+02  0.274740D+00
  0.749500D+01  0.448564D+00
  0.279700D+01  0.285074D+00
  0.521500D+00  0.152040D-01
  0.159600D+00 -0.319100D-02
   s     9 1.00
  0.666500D+04 -0.146000D-03
  0.100000D+04 -0.115400D-02
  0.228000D+03 -0.572500D-02
  0.647100D+02 -0.233120D-01
  0.210600D+02 -0.639550D-01
  0.749500D+01 -0.149981D+00
  0.279700D+01 -0.127262D+00
  0.521500D+00  0.544529D+00
  0.159600D+00  0.580496D+00
   s     1 1.00
  0.159600D+00  0.100000D+01
   p     4 1.00
  0.943900D+01  0.381090D-01
  0.200200D+01  0.209480D+00
  0.545600D+00  0.508557D+00
  0.151700D+00  0.468842D+00
   p     1 1.00
  0.151700D+00  0.100000D+01
   d     1 1.00
  0.550000D+00  0.100000D+01
  
  6  0
   s     4 1.00
  0.130100D+02  0.196850D-01
  0.196200D+01  0.137977D+00
  0.444600D+00  0.478148D+00
  0.122000D+00  0.501240D+00
   s     1 1.00
  0.122000D+00  0.100000D+01
   p     1 1.00
  0.727000D+00  0.100000D+01
  
  7  0
   s     4 1.00
  0.130100D+02  0.196850D-01
  0.196200D+01  0.137977D+00
  0.444600D+00  0.478148D+00
  0.122000D+00  0.501240D+00
   s     1 1.00
  0.122000D+00  0.100000D+01
   p     1 1.00
  0.727000D+00  0.100000D+01
  
[MO]
 Sym= __1_A1_
 Ene=   1.00000000000000     
 Spin= Alpha
 Occup=    1.00000000000000     
                     1   1.00087375142259     
                     2  3.986043039388354E-003
                     3 -6.241168409516216E-003
                     4  0.000000000000000E+000
                     5  0.000000000000000E+000
                     6  2.163039714187903E-003
                     7  0.000000000000000E+000
                     8  0.000000000000000E+000
                     9 -2.901784311930535E-003
                    10  1.234067745158387E-005
                    11  0.000000000000000E+000
                    12  0.000000000000000E+000
                    13  9.865911790736648E-005
                    14  0.000000000000000E+000
                    15  1.361627776081431E-004
                    16  5.237493136269601E-004
                    17  1.993715606020720E-003
                    18  0.000000000000000E+000
                    19  3.550098628166665E-004
                    20 -3.212895735726552E-004
                    21  0.000000000000000E+000
                    22  1.183944993261631E-003
                    23  3.164440608087814E-004
                    24  4.316732709696085E-005
                    25  0.000000000000000E+000
                    26  3.011185825490641E-004
                    27 -9.087787493797700E-005
                    28  0.000000000000000E+000
                    29  1.361627776081431E-004
                    30  5.237493136269601E-004
                    31  1.993715606020720E-003
                    32  0.000000000000000E+000
                    33 -3.550098628166665E-004
                    34 -3.212895735726552E-004
                    35  0.000000000000000E+000
                    36 -1.183944993261631E-003
                    37  3.164440608087814E-004
                    38  4.316732709696085E-005
                    39  0.000000000000000E+000
                    40 -3.011185825490641E-004
                    41 -9.087787493797700E-005
                    42  0.000000000000000E+000
                    43 -2.633649755528841E-005
                    44 -1.219028108207126E-004
                    45 -1.030811195706095E-003
                    46  0.000000000000000E+000
                    47  4.941828170754495E-005
                    48  2.919304011514931E-004
                    49  0.000000000000000E+000
                    50 -1.866114343880388E-004
                    51  3.947976929328755E-004
                    52 -6.225733263595438E-005
                    53  0.000000000000000E+000
                    54 -7.129705856347913E-006
                    55 -7.302840751325217E-005
                    56  0.000000000000000E+000
                    57 -2.633649755528841E-005
                    58 -1.219028108207126E-004
                    59 -1.030811195706095E-003
                    60  0.000000000000000E+000
                    61 -4.941828170754495E-005
                    62  2.919304011514931E-004
                    63  0.000000000000000E+000
                    64  1.866114343880388E-004
                    65  3.947976929328755E-004
                    66 -6.225733263595438E-005
                    67  0.000000000000000E+000
                    68  7.129705856347913E-006
                    69 -7.302840751325217E-005
                    70  0.000000000000000E+000
                    71 -3.593891361775103E-004
                    72  4.162319768980500E-004
                    73  0.000000000000000E+000
                    74 -2.156510752481557E-004
                    75  4.514598611770471E-005
                    76 -3.593891361775103E-004
                    77  4.162319768980500E-004
                    78  0.000000000000000E+000
                    79  2.156510752481557E-004
                    80  4.514598611770471E-005
 Sym= __2_A1_
 Ene=   2.00000000000000     
 Spin= Alpha
 Occup=    1.00000000000000     
                     1  3.912251788826295E-004
                     2  2.165541307360639E-003
                     3 -3.913524813260470E-003
                     4  0.000000000000000E+000
                     5  0.000000000000000E+000
                     6  3.526387004239655E-004
                     7  0.000000000000000E+000
                     8  0.000000000000000E+000
                     9 -1.908902274210709E-003
                    10 -1.949200984392163E-004
                    11  0.000000000000000E+000
                    12  0.000000000000000E+000
                    13  3.302203417838570E-004
                    14  0.000000000000000E+000
                    15  0.707902268887636     
                    16  5.362217801573078E-003
                    17 -3.324178085326291E-003
                    18  0.000000000000000E+000
                    19  1.225573590648569E-003
                    20 -5.583757681022963E-004
                    21  0.000000000000000E+000
                    22  6.961035090140564E-004
                    23  6.107687706469122E-004
                    24  7.888798831174317E-005
                    25  0.000000000000000E+000
                    26  2.200145737351264E-004
                    27 -5.888179123956232E-004
                    28  0.000000000000000E+000
                    29  0.707902268887636     
                    30  5.362217801573078E-003
                    31 -3.324178085326291E-003
                    32  0.000000000000000E+000
                    33 -1.225573590648569E-003
                    34 -5.583757681022963E-004
                    35  0.000000000000000E+000
                    36 -6.961035090140564E-004
                    37  6.107687706469122E-004
                    38  7.888798831174317E-005
                    39  0.000000000000000E+000
                    40 -2.200145737351264E-004
                    41 -5.888179123956232E-004
                    42  0.000000000000000E+000
                    43  8.911835657413840E-003
                    44 -1.603317484054549E-005
                    45 -2.473764464930654E-004
                    46  0.000000000000000E+000
                    47  7.120707498891120E-005
                    48  2.973775670924645E-004
                    49  0.000000000000000E+000
                    50 -4.140651708970079E-004
                    51  1.447668989997000E-004
                    52 -3.113938698384139E-004
                    53  0.000000000000000E+000
                    54  7.188819760760812E-005
                    55  9.600603328986896E-005
                    56  0.000000000000000E+000
                    57  8.911835657413840E-003
                    58 -1.603317484054549E-005
                    59 -2.473764464930654E-004
                    60  0.000000000000000E+000
                    61 -7.120707498891120E-005
                    62  2.973775670924645E-004
                    63  0.000000000000000E+000
                    64  4.140651708970079E-004
                    65  1.447668989997000E-004
                    66 -3.113938698384139E-004
                    67  0.000000000000000E+000
                    68 -7.188819760760812E-005
                    69  9.600603328986896E-005
                    70  0.000000000000000E+000
                    71 -4.130406625441184E-004
                    72  1.515136277648226E-003
                    73  0.000000000000000E+000
                    74 -3.381611297854416E-004
                    75 -6.632929940672831E-005
                    76 -4.130406625441184E-004
                    77  1.515136277648226E-003
                    78  0.000000000000000E+000
                    79  3.381611297854416E-004
                    80 -6.632929940672831E-005
 Sym= __3_A1_
 Ene=   3.00000000000000     
 Spin= Alpha
 Occup=    1.00000000000000     
                     1  1.419897728584798E-004
                     2  3.385222612602468E-004
                     3 -1.618836311936648E-003
                     4  0.000000000000000E+000
                     5  0.000000000000000E+000
                     6 -2.279198035837944E-004
                     7  0.000000000000000E+000
                     8  0.000000000000000E+000
                     9 -7.278718903986026E-004
                    10  2.196441781723859E-005
                    11  0.000000000000000E+000
                    12  0.000000000000000E+000
                    13 -3.038896683992398E-005
                    14  0.000000000000000E+000
                    15 -9.332095792445667E-003
                    16 -4.951766077239585E-004
                    17  4.360471314003592E-003
                    18  0.000000000000000E+000
                    19  1.257433563305581E-004
                    20  1.293910078457976E-005
                    21  0.000000000000000E+000
                    22  1.610380240268257E-003
                    23  2.130516026947253E-003
                    24 -1.160335653311962E-007
                    25  0.000000000000000E+000
                    26  1.410440514054990E-004
                    27 -5.207656964965030E-005
                    28  0.000000000000000E+000
                    29 -9.332095792445667E-003
                    30 -4.951766077239585E-004
                    31  4.360471314003592E-003
                    32  0.000000000000000E+000
                    33 -1.257433563305581E-004
                    34  1.293910078457976E-005
                    35  0.000000000000000E+000
                    36 -1.610380240268257E-003
                    37  2.130516026947253E-003
                    38 -1.160335653311962E-007
                    39  0.000000000000000E+000
                    40 -1.410440514054990E-004
                    41 -5.207656964965030E-005
                    42  0.000000000000000E+000
                    43  0.707887287867761     
                    44  5.395764217092543E-003
                    45 -8.185740728895994E-003
                    46  0.000000000000000E+000
                    47  1.252779223142417E-003
                    48 -9.037658524300575E-004
                    49  0.000000000000000E+000
                    50 -2.210137067132245E-004
                    51  2.191956196909278E-003
                    52 -2.459015111025765E-004
                    53  0.000000000000000E+000
                    54  3.617077498850916E-005
                    55 -8.081533604702340E-005
                    56  0.000000000000000E+000
                    57  0.707887287867761     
                    58  5.395764217092543E-003
                    59 -8.185740728895994E-003
                    60  0.000000000000000E+000
                    61 -1.252779223142417E-003
                    62 -9.037658524300575E-004
                    63  0.000000000000000E+000
                    64  2.210137067132245E-004
                    65  2.191956196909278E-003
                    66 -2.459015111025765E-004
                    67  0.000000000000000E+000
                    68 -3.617077498850916E-005
                    69 -8.081533604702340E-005
                    70  0.000000000000000E+000
                    71  8.927477195606018E-005
                    72  7.965833706119287E-004
                    73  0.000000000000000E+000
                    74 -8.779042513755589E-006
                    75 -4.691952304197879E-005
                    76  8.927477195606018E-005
                    77  7.965833706119287E-004
                    78  0.000000000000000E+000
                    79  8.779042513755589E-006
                    80 -4.691952304197879E-005
 Sym= __4_A1_
 Ene=   4.00000000000000     
 Spin= Alpha
 Occup=    1.00000000000000     
                     1 -1.026154165424463E-002
                     2  0.788701476655718     
                     3 -3.656720633419649E-002
                     4  0.000000000000000E+000
                     5  0.000000000000000E+000
                     6  0.138066526482077     
                     7  0.000000000000000E+000
                     8  0.000000000000000E+000
                     9 -1.749181051296064E-002
                    10  4.335360383694806E-003
                    11  0.000000000000000E+000
                    12  0.000000000000000E+000
                    13 -9.437008440032899E-003
                    14  0.000000000000000E+000
                    15 -1.119701288681288E-002
                    16  0.263757970854665     
                    17 -0.124546285549550     
                    18  0.000000000000000E+000
                    19  0.140652122036818     
                    20 -6.187745424758211E-002
                    21  0.000000000000000E+000
                    22 -6.789274405409321E-002
                    23  1.775222612715080E-002
                    24 -3.109544107744268E-003
                    25  0.000000000000000E+000
                    26 -2.152144851339226E-002
                    27 -1.542888847923736E-002
                    28  0.000000000000000E+000
                    29 -1.119701288681288E-002
                    30  0.263757970854665     
                    31 -0.124546285549550     
                    32  0.000000000000000E+000
                    33 -0.140652122036818     
                    34 -6.187745424758211E-002
                    35  0.000000000000000E+000
                    36  6.789274405409321E-002
                    37  1.775222612715080E-002
                    38 -3.109544107744268E-003
                    39  0.000000000000000E+000
                    40  2.152144851339226E-002
                    41 -1.542888847923736E-002
                    42  0.000000000000000E+000
                    43 -2.429838401010764E-003
                    44  0.108815737305821     
                    45 -2.817779344308763E-002
                    46  0.000000000000000E+000
                    47  2.173248140908802E-002
                    48 -5.758578569148539E-002
                    49  0.000000000000000E+000
                    50 -9.129007694699914E-003
                    51  1.420586572040037E-002
                    52  5.838337371815251E-003
                    53  0.000000000000000E+000
                    54  4.288124968906776E-004
                    55 -1.266719300198129E-003
                    56  0.000000000000000E+000
                    57 -2.429838401010764E-003
                    58  0.108815737305821     
                    59 -2.817779344308763E-002
                    60  0.000000000000000E+000
                    61 -2.173248140908802E-002
                    62 -5.758578569148539E-002
                    63  0.000000000000000E+000
                    64  9.129007694699914E-003
                    65  1.420586572040037E-002
                    66  5.838337371815251E-003
                    67  0.000000000000000E+000
                    68 -4.288124968906776E-004
                    69 -1.266719300198129E-003
                    70  0.000000000000000E+000
                    71  4.061695491667760E-002
                    72 -2.435923302188944E-002
                    73  0.000000000000000E+000
                    74  7.686241297039512E-003
                    75 -4.165685017392273E-004
                    76  4.061695491667760E-002
                    77 -2.435923302188944E-002
                    78  0.000000000000000E+000
                    79 -7.686241297039512E-003
                    80 -4.165685017392273E-004
 Sym= __5_A1_
 Ene=   5.00000000000000     
 Spin= Alpha
 Occup=    1.00000000000000     
                     1 -9.473298123268070E-004
                     2 -0.363070608261856     
                     3  2.459515122890815E-004
                     4  0.000000000000000E+000
                     5  0.000000000000000E+000
                     6  8.424201980183606E-002
                     7  0.000000000000000E+000
                     8  0.000000000000000E+000
                     9 -4.952992887769891E-003
                    10  6.014886046665443E-003
                    11  0.000000000000000E+000
                    12  0.000000000000000E+000
                    13  9.715479719085870E-004
                    14  0.000000000000000E+000
                    15 -2.800299402613624E-003
                    16  0.220851884703486     
                    17 -9.057267164835009E-002
                    18  0.000000000000000E+000
                    19  2.914983361737189E-002
                    20  0.202791736606131     
                    21  0.000000000000000E+000
                    22 -2.858101070663838E-002
                    23 -7.864303204206102E-002
                    24  7.252773200724402E-003
                    25  0.000000000000000E+000
                    26  2.633085923440459E-002
                    27 -1.856051484313758E-003
                    28  0.000000000000000E+000
                    29 -2.800299402613624E-003
                    30  0.220851884703486     
                    31 -9.057267164835009E-002
                    32  0.000000000000000E+000
                    33 -2.914983361737189E-002
                    34  0.202791736606131     
                    35  0.000000000000000E+000
                    36  2.858101070663838E-002
                    37 -7.864303204206102E-002
                    38  7.252773200724402E-003
                    39  0.000000000000000E+000
                    40 -2.633085923440459E-002
                    41 -1.856051484313758E-003
                    42  0.000000000000000E+000
                    43 -1.841306344429454E-002
                    44  0.517679150528994     
                    45 -0.146781812985802     
                    46  0.000000000000000E+000
                    47  0.188202689493292     
                    48 -0.152572009429393     
                    49  0.000000000000000E+000
                    50 -5.547889413719970E-002
                    51  3.077639367593458E-002
                    52 -4.648426027668085E-004
                    53  0.000000000000000E+000
                    54 -4.979524037832199E-004
                    55 -1.777710390549622E-002
                    56  0.000000000000000E+000
                    57 -1.841306344429454E-002
                    58  0.517679150528994     
                    59 -0.146781812985802     
                    60  0.000000000000000E+000
                    61 -0.188202689493292     
                    62 -0.152572009429393     
                    63  0.000000000000000E+000
                    64  5.547889413719970E-002
                    65  3.077639367593458E-002
                    66 -4.648426027668085E-004
                    67  0.000000000000000E+000
                    68  4.979524037832199E-004
                    69 -1.777710390549622E-002
                    70  0.000000000000000E+000
                    71  1.861321836226333E-002
                    72 -1.603050475592065E-002
                    73  0.000000000000000E+000
                    74 -1.153827140281134E-003
                    75  2.813001356934697E-003
                    76  1.861321836226333E-002
                    77 -1.603050475592065E-002
                    78  0.000000000000000E+000
                    79  1.153827140281134E-003
                    80  2.813001356934697E-003
 Sym= __6_A1_
 Ene=   6.00000000000000     
 Spin= Alpha
 Occup=    1.00000000000000     
                     1 -1.521190747611573E-003
                     2 -0.201708044641371     
                     3 -2.240515006349150E-002
                     4  0.000000000000000E+000
                     5  0.000000000000000E+000
                     6  6.490224164160575E-002
                     7  0.000000000000000E+000
                     8  0.000000000000000E+000
                     9  5.508001824424887E-003
                    10 -1.689060355074340E-003
                    11  0.000000000000000E+000
                    12  0.000000000000000E+000
                    13 -4.139839155961426E-003
                    14  0.000000000000000E+000
                    15 -7.562133218709792E-003
                    16  0.413812188946422     
                    17 -5.994538973695317E-002
                    18  0.000000000000000E+000
                    19 -0.226171965709193     
                    20  5.520591895022213E-003
                    21  0.000000000000000E+000
                    22  6.379443917897812E-002
                    23  1.281066832588699E-002
                    24  5.022586442187845E-003
                    25  0.000000000000000E+000
                    26  4.522524230877745E-003
                    27  2.824260377706978E-003
                    28  0.000000000000000E+000
                    29 -7.562133218709792E-003
                    30  0.413812188946422     
                    31 -5.994538973695317E-002
                    32  0.000000000000000E+000
                    33  0.226171965709193     
                    34  5.520591895022213E-003
                    35  0.000000000000000E+000
                    36 -6.379443917897812E-002
                    37  1.281066832588699E-002
                    38  5.022586442187845E-003
                    39  0.000000000000000E+000
                    40 -4.522524230877745E-003
                    41  2.824260377706978E-003
                    42  0.000000000000000E+000
                    43  3.961937889054605E-003
                    44 -0.171223163599920     
                    45  3.550612246933545E-002
                    46  0.000000000000000E+000
                    47 -0.321503270611599     
                    48 -0.117157032492335     
                    49  0.000000000000000E+000
                    50  8.903956058430693E-002
                    51  4.395260811246680E-002
                    52  1.192479188949591E-002
                    53  0.000000000000000E+000
                    54  7.105327019099253E-003
                    55  1.179543383789504E-002
                    56  0.000000000000000E+000
                    57  3.961937889054605E-003
                    58 -0.171223163599920     
                    59  3.550612246933545E-002
                    60  0.000000000000000E+000
                    61  0.321503270611599     
                    62 -0.117157032492335     
                    63  0.000000000000000E+000
                    64 -8.903956058430693E-002
                    65  4.395260811246680E-002
                    66  1.192479188949591E-002
                    67  0.000000000000000E+000
                    68 -7.105327019099253E-003
                    69  1.179543383789504E-002
                    70  0.000000000000000E+000
                    71  0.367523066323196     
                    72 -0.143451185942687     
                    73  0.000000000000000E+000
                    74  1.981584776030285E-002
                    75  1.135616251381796E-002
                    76  0.367523066323196     
                    77 -0.143451185942687     
                    78  0.000000000000000E+000
                    79 -1.981584776030285E-002
                    80  1.135616251381796E-002
 Sym= __7_A1_
 Ene=   7.00000000000000     
 Spin= Alpha
 Occup=    1.00000000000000     
                     1 -2.428425821589202E-003
                     2 -0.165544502780819     
                     3 -2.998531329940542E-002
                     4  0.000000000000000E+000
                     5  0.000000000000000E+000
                     6  0.621903364876676     
                     7  0.000000000000000E+000
                     8  0.000000000000000E+000
                     9 -5.372425879622485E-003
                    10  1.890002283679662E-002
                    11  0.000000000000000E+000
                    12  0.000000000000000E+000
                    13  5.623032969744226E-004
                    14  0.000000000000000E+000
                    15  1.597018139021209E-003
                    16  4.590431567558118E-002
                    17 -2.720639215842865E-002
                    18  0.000000000000000E+000
                    19  0.297957001625594     
                    20  0.103379275339752     
                    21  0.000000000000000E+000
                    22 -8.968776214507114E-002
                    23  2.170249009563317E-003
                    24 -1.341653774343454E-002
                    25  0.000000000000000E+000
                    26 -1.483861191124175E-002
                    27 -1.747079467546571E-002
                    28  0.000000000000000E+000
                    29  1.597018139021209E-003
                    30  4.590431567558118E-002
                    31 -2.720639215842865E-002
                    32  0.000000000000000E+000
                    33 -0.297957001625594     
                    34  0.103379275339752     