[Molden Format]
[Atoms] AU
  O     1    8     0.0000000000    0.0000000000   -2.2024593600        
  C     2    6     0.0000000000   -2.0802834200   -0.6649831500        
  C     3    6     0.0000000000    2.0802834200   -0.6649831500        
  C     4    6     0.0000000000   -1.2570207400    1.7897024000        
  C     5    6     0.0000000000    1.2570207400    1.7897024000        
  H     6    1     0.0000000000   -3.8984852700   -1.5908381000        
  H     7    1     0.0000000000    3.8984852700   -1.5908381000        
[5D7F]
[GTO]
  1  0
   s     9 1.00
  0.117200D+05  0.710000D-03
  0.175900D+04  0.547000D-02
  0.400800D+03  0.278370D-01
  0.113700D+03  0.104800D+00
  0.370300D+02  0.283062D+00
  0.132700D+02  0.448719D+00
  0.502500D+01  0.270952D+00
  0.101300D+01  0.154580D-01
  0.302300D+00 -0.258500D-02
   s     9 1.00
  0.117200D+05 -0.160000D-03
  0.175900D+04 -0.126300D-02
  0.400800D+03 -0.626700D-02
  0.113700D+03 -0.257160D-01
  0.370300D+02 -0.709240D-01
  0.132700D+02 -0.165411D+00
  0.502500D+01 -0.116955D+00
  0.101300D+01  0.557368D+00
  0.302300D+00  0.572759D+00
   s     1 1.00
  0.302300D+00  0.100000D+01
   p     4 1.00
  0.177000D+02  0.430180D-01
  0.385400D+01  0.228913D+00
  0.104600D+01  0.508728D+00
  0.275300D+00  0.460531D+00
   p     1 1.00
  0.275300D+00  0.100000D+01
   d     1 1.00
  0.118500D+01  0.100000D+01
  
  2  0
   s     9 1.00
  0.666500D+04  0.692000D-03
  0.100000D+04  0.532900D-02
  0.228000D+03  0.270770D-01
  0.647100D+02  0.101718D+00
  0.210600D+02  0.274740D+00
  0.749500D+01  0.448564D+00
  0.279700D+01  0.285074D+00
  0.521500D+00  0.152040D-01
  0.159600D+00 -0.319100D-02
   s     9 1.00
  0.666500D+04 -0.146000D-03
  0.100000D+04 -0.115400D-02
  0.228000D+03 -0.572500D-02
  0.647100D+02 -0.233120D-01
  0.210600D+02 -0.639550D-01
  0.749500D+01 -0.149981D+00
  0.279700D+01 -0.127262D+00
  0.521500D+00  0.544529D+00
  0.159600D+00  0.580496D+00
   s     1 1.00
  0.159600D+00  0.100000D+01
   p     4 1.00
  0.943900D+01  0.381090D-01
  0.200200D+01  0.209480D+00
  0.545600D+00  0.508557D+00
  0.151700D+00  0.468842D+00
   p     1 1.00
  0.151700D+00  0.100000D+01
   d     1 1.00
  0.550000D+00  0.100000D+01
  
  3  0
   s     9 1.00
  0.666500D+04  0.692000D-03
  0.100000D+04  0.532900D-02
  0.228000D+03  0.270770D-01
  0.647100D+02  0.101718D+00
  0.210600D+02  0.274740D+00
  0.749500D+01  0.448564D+00
  0.279700D+01  0.285074D+00
  0.521500D+00  0.152040D-01
  0.159600D+00 -0.319100D-02
   s     9 1.00
  0.666500D+04 -0.146000D-03
  0.100000D+04 -0.115400D-02
  0.228000D+03 -0.572500D-02
  0.647100D+02 -0.233120D-01
  0.210600D+02 -0.639550D-01
  0.749500D+01 -0.149981D+00
  0.279700D+01 -0.127262D+00
  0.521500D+00  0.544529D+00
  0.159600D+00  0.580496D+00
   s     1 1.00
  0.159600D+00  0.100000D+01
   p     4 1.00
  0.943900D+01  0.381090D-01
  0.200200D+01  0.209480D+00
  0.545600D+00  0.508557D+00
  0.151700D+00  0.468842D+00
   p     1 1.00
  0.151700D+00  0.100000D+01
   d     1 1.00
  0.550000D+00  0.100000D+01
  
  4  0
   s     9 1.00
  0.666500D+04  0.692000D-03
  0.100000D+04  0.532900D-02
  0.228000D+03  0.270770D-01
  0.647100D+02  0.101718D+00
  0.210600D+02  0.274740D+00
  0.749500D+01  0.448564D+00
  0.279700D+01  0.285074D+00
  0.521500D+00  0.152040D-01
  0.159600D+00 -0.319100D-02
   s     9 1.00
  0.666500D+04 -0.146000D-03
  0.100000D+04 -0.115400D-02
  0.228000D+03 -0.572500D-02
  0.647100D+02 -0.233120D-01
  0.210600D+02 -0.639550D-01
  0.749500D+01 -0.149981D+00
  0.279700D+01 -0.127262D+00
  0.521500D+00  0.544529D+00
  0.159600D+00  0.580496D+00
   s     1 1.00
  0.159600D+00  0.100000D+01
   p     4 1.00
  0.943900D+01  0.381090D-01
  0.200200D+01  0.209480D+00
  0.545600D+00  0.508557D+00
  0.151700D+00  0.468842D+00
   p     1 1.00
  0.151700D+00  0.100000D+01
   d     1 1.00
  0.550000D+00  0.100000D+01
  
  5  0
   s     9 1.00
  0.666500D+04  0.692000D-03
  0.100000D+04  0.532900D-02
  0.228000D+03  0.270770D-01
  0.647100D+02  0.101718D+00
  0.210600D+02  0.274740D+00
  0.749500D+01  0.448564D+00
  0.279700D+01  0.285074D+00
  0.521500D+00  0.152040D-01
  0.159600D+00 -0.319100D-02
   s     9 1.00
  0.666500D+04 -0.146000D-03
  0.100000D+04 -0.115400D-02
  0.228000D+03 -0.572500D-02
  0.647100D+02 -0.233120D-01
  0.210600D+02 -0.639550D-01
  0.749500D+01 -0.149981D+00
  0.279700D+01 -0.127262D+00
  0.521500D+00  0.544529D+00
  0.159600D+00  0.580496D+00
   s     1 1.00
  0.159600D+00  0.100000D+01
   p     4 1.00
  0.943900D+01  0.381090D-01
  0.200200D+01  0.209480D+00
  0.545600D+00  0.508557D+00
  0.151700D+00  0.468842D+00
   p     1 1.00
  0.151700D+00  0.100000D+01
   d     1 1.00
  0.550000D+00  0.100000D+01
  
  6  0
   s     4 1.00
  0.130100D+02  0.196850D-01
  0.196200D+01  0.137977D+00
  0.444600D+00  0.478148D+00
  0.122000D+00  0.501240D+00
   s     1 1.00
  0.122000D+00  0.100000D+01
   p     1 1.00
  0.727000D+00  0.100000D+01
  
  7  0
   s     4 1.00
  0.130100D+02  0.196850D-01
  0.196200D+01  0.137977D+00
  0.444600D+00  0.478148D+00
  0.122000D+00  0.501240D+00
   s     1 1.00
  0.122000D+00  0.100000D+01
   p     1 1.00
  0.727000D+00  0.100000D+01
  
[MO]
 Sym= __1_A1_
 Ene=   1.00000000000000     
 Spin= Alpha
 Occup=    1.00000000000000     
                     1   1.00088251289900     
                     2  4.037242377088000E-003
                     3 -6.269606866481000E-003
                     4  0.000000000000000E+000
                     5  0.000000000000000E+000
                     6  2.230214005391000E-003
                     7  0.000000000000000E+000
                     8  0.000000000000000E+000
                     9 -2.937713722590000E-003
                    10  6.476971091817052E-006
                    11  0.000000000000000E+000
                    12  0.000000000000000E+000
                    13  8.237147504946000E-005
                    14  0.000000000000000E+000
                    15  1.489158428694000E-004
                    16  5.488958263071999E-004
                    17  1.978501339513000E-003
                    18  0.000000000000000E+000
                    19  3.369879879882000E-004
                    20 -3.106177336950000E-004
                    21  0.000000000000000E+000
                    22  1.191112701878000E-003
                    23  3.412023793096000E-004
                    24  4.970437057826116E-005
                    25  0.000000000000000E+000
                    26  3.263609859520000E-004
                    27 -6.908157832854000E-005
                    28  0.000000000000000E+000
                    29  1.489158428694000E-004
                    30  5.488958263071999E-004
                    31  1.978501339513000E-003
                    32  0.000000000000000E+000
                    33 -3.369879879882000E-004
                    34 -3.106177336950000E-004
                    35  0.000000000000000E+000
                    36 -1.191112701878000E-003
                    37  3.412023793096000E-004
                    38  4.970437057826116E-005
                    39  0.000000000000000E+000
                    40 -3.263609859520000E-004
                    41 -6.908157832854000E-005
                    42  0.000000000000000E+000
                    43 -3.582379063544000E-005
                    44 -1.466518567608000E-004
                    45 -1.027397878003000E-003
                    46  0.000000000000000E+000
                    47  6.105157125296000E-005
                    48  3.001506000960000E-004
                    49  0.000000000000000E+000
                    50 -1.822818833556000E-004
                    51  3.880297971458000E-004
                    52 -5.826107517662245E-005
                    53  0.000000000000000E+000
                    54 -1.315783950987000E-005
                    55 -8.051863644718000E-005
                    56  0.000000000000000E+000
                    57 -3.582379063544000E-005
                    58 -1.466518567608000E-004
                    59 -1.027397878003000E-003
                    60  0.000000000000000E+000
                    61 -6.105157125296000E-005
                    62  3.001506000960000E-004
                    63  0.000000000000000E+000
                    64  1.822818833556000E-004
                    65  3.880297971458000E-004
                    66 -5.826107517662245E-005
                    67  0.000000000000000E+000
                    68  1.315783950987000E-005
                    69 -8.051863644718000E-005
                    70  0.000000000000000E+000
                    71 -3.583914581986000E-004
                    72  4.250909240852000E-004
                    73  0.000000000000000E+000
                    74 -2.172249363348000E-004
                    75  5.049403881877000E-005
                    76 -3.583914581986000E-004
                    77  4.250909240852000E-004
                    78  0.000000000000000E+000
                    79  2.172249363348000E-004
                    80  5.049403881877000E-005
 Sym= __2_A1_
 Ene=   2.00000000000000     
 Spin= Alpha
 Occup=    1.00000000000000     
                     1  3.906547499767000E-004
                     2  2.218850051574000E-003
                     3 -4.143041125951000E-003
                     4  0.000000000000000E+000
                     5  0.000000000000000E+000
                     6  3.432280639741000E-004
                     7  0.000000000000000E+000
                     8  0.000000000000000E+000
                     9 -1.983728453875000E-003
                    10 -2.041535204414137E-004
                    11  0.000000000000000E+000
                    12  0.000000000000000E+000
                    13  3.260778795416000E-004
                    14  0.000000000000000E+000
                    15  0.707740100802000     
                    16  5.387177427509000E-003
                    17 -3.249206778613000E-003
                    18  0.000000000000000E+000
                    19  1.190187364117000E-003
                    20 -6.835817181615000E-004
                    21  0.000000000000000E+000
                    22  8.317934511506000E-004
                    23  7.407308118221000E-004
                    24  7.248724607653130E-005
                    25  0.000000000000000E+000
                    26  2.142271100827000E-004
                    27 -6.409758105666000E-004
                    28  0.000000000000000E+000
                    29  0.707740100802000     
                    30  5.387177427509000E-003
                    31 -3.249206778613000E-003
                    32  0.000000000000000E+000
                    33 -1.190187364117000E-003
                    34 -6.835817181615000E-004
                    35  0.000000000000000E+000
                    36 -8.317934511506000E-004
                    37  7.407308118221000E-004
                    38  7.248724607653130E-005
                    39  0.000000000000000E+000
                    40 -2.142271100827000E-004
                    41 -6.409758105666000E-004
                    42  0.000000000000000E+000
                    43  1.773834812057000E-002
                    44  9.758770495043999E-005
                    45 -3.988078287414000E-004
                    46  0.000000000000000E+000
                    47  1.260236707519000E-004
                    48  2.395623038775000E-004
                    49  0.000000000000000E+000
                    50 -4.685333063144000E-004
                    51  2.160365665895000E-004
                    52 -2.721362694857183E-004
                    53  0.000000000000000E+000
                    54  9.201812575172000E-005
                    55  1.079933801082800E-004
                    56  0.000000000000000E+000
                    57  1.773834812057000E-002
                    58  9.758770495043999E-005
                    59 -3.988078287414000E-004
                    60  0.000000000000000E+000
                    61 -1.260236707519000E-004
                    62  2.395623038775000E-004
                    63  0.000000000000000E+000
                    64  4.685333063144000E-004
                    65  2.160365665895000E-004
                    66 -2.721362694857183E-004
                    67  0.000000000000000E+000
                    68 -9.201812575172000E-005
                    69  1.079933801082800E-004
                    70  0.000000000000000E+000
                    71 -4.562280660334000E-004
                    72  1.600356214841000E-003
                    73  0.000000000000000E+000
                    74 -3.572778951285000E-004
                    75 -7.810788938052000E-005
                    76 -4.562280660334000E-004
                    77  1.600356214841000E-003
                    78  0.000000000000000E+000
                    79  3.572778951285000E-004
                    80 -7.810788938052000E-005
 Sym= __3_A1_
 Ene=   3.00000000000000     
 Spin= Alpha
 Occup=    1.00000000000000     
                     1  9.538859143048000E-005
                     2  3.544131064369000E-004
                     3 -1.204449577497000E-003
                     4  0.000000000000000E+000
                     5  0.000000000000000E+000
                     6  2.004415222215000E-004
                     7  0.000000000000000E+000
                     8  0.000000000000000E+000
                     9 -4.226543021841000E-004
                    10  6.277228950091083E-005
                    11  0.000000000000000E+000
                    12  0.000000000000000E+000
                    13 -1.600275672571600E-005
                    14  0.000000000000000E+000
                    15 -1.821679360953000E-002
                    16 -8.518454886218000E-004
                    17  3.759518713034000E-003
                    18  0.000000000000000E+000
                    19  7.617975356519000E-005
                    20 -1.704139207183000E-004
                    21  0.000000000000000E+000
                    22  1.457167104762000E-003
                    23  1.722686967916000E-003
                    24 -1.617880328146878E-004
                    25  0.000000000000000E+000
                    26 -1.720778083756000E-004
                    27  7.730663652122000E-005
                    28  0.000000000000000E+000
                    29 -1.821679360953000E-002
                    30 -8.518454886218000E-004
                    31  3.759518713034000E-003
                    32  0.000000000000000E+000
                    33 -7.617975356519000E-005
                    34 -1.704139207183000E-004
                    35  0.000000000000000E+000
                    36 -1.457167104762000E-003
                    37  1.722686967916000E-003
                    38 -1.617880328146878E-004
                    39  0.000000000000000E+000
                    40  1.720778083756000E-004
                    41  7.730663652122000E-005
                    42  0.000000000000000E+000
                    43  0.707633766853500     
                    44  4.979271743396000E-003
                    45 -6.278271915506000E-003
                    46  0.000000000000000E+000
                    47  3.547081241410000E-004
                    48 -1.199390650742000E-003
                    49  0.000000000000000E+000
                    50 -6.688917472148000E-004
                    51  2.661897213995000E-003
                    52  1.249688958351947E-004
                    53  0.000000000000000E+000
                    54  2.863251591721000E-004
                    55  1.379235197927600E-004
                    56  0.000000000000000E+000
                    57  0.707633766853500     
                    58  4.979271743396000E-003
                    59 -6.278271915506000E-003
                    60  0.000000000000000E+000
                    61 -3.547081241410000E-004
                    62 -1.199390650742000E-003
                    63  0.000000000000000E+000
                    64  6.688917472148000E-004
                    65  2.661897213995000E-003
                    66  1.249688958351947E-004
                    67  0.000000000000000E+000
                    68 -2.863251591721000E-004
                    69  1.379235197927600E-004
                    70  0.000000000000000E+000
                    71  1.451858182548000E-004
                    72  5.568380031718000E-004
                    73  0.000000000000000E+000
                    74  9.293672163276000E-005
                    75 -2.046286632153000E-005
                    76  1.451858182548000E-004
                    77  5.568380031718000E-004
                    78  0.000000000000000E+000
                    79 -9.293672163276000E-005
                    80 -2.046286632153000E-005
 Sym= __4_A1_
 Ene=   4.00000000000000     
 Spin= Alpha
 Occup=    1.00000000000000     
                     1 -1.004122921394000E-002
                     2  0.786699033971200     
                     3 -4.135121858072000E-002
                     4  0.000000000000000E+000
                     5  0.000000000000000E+000
                     6  0.142935748549200     
                     7  0.000000000000000E+000
                     8  0.000000000000000E+000
                     9 -1.883171801121000E-002
                    10  4.351184714187607E-003
                    11  0.000000000000000E+000
                    12  0.000000000000000E+000
                    13 -9.731178469740000E-003
                    14  0.000000000000000E+000
                    15 -1.155435159070000E-002
                    16  0.268999848145700     
                    17 -0.126555107356300     
                    18  0.000000000000000E+000
                    19  0.144625133895100     
                    20 -6.032211213953000E-002
                    21  0.000000000000000E+000
                    22 -7.014655353813000E-002
                    23  1.880773948826000E-002
                    24 -3.183348450283575E-003
                    25  0.000000000000000E+000
                    26 -2.171823824885000E-002
                    27 -1.622046695942400E-002
                    28  0.000000000000000E+000
                    29 -1.155435159070000E-002
                    30  0.268999848145700     
                    31 -0.126555107356300     
                    32  0.000000000000000E+000
                    33 -0.144625133895100     
                    34 -6.032211213953000E-002
                    35  0.000000000000000E+000
                    36  7.014655353813000E-002
                    37  1.880773948826000E-002
                    38 -3.183348450283575E-003
                    39  0.000000000000000E+000
                    40  2.171823824885000E-002
                    41 -1.622046695942400E-002
                    42  0.000000000000000E+000
                    43 -2.183613556909000E-003
                    44  0.113242563909800     
                    45 -3.002156677301000E-002
                    46  0.000000000000000E+000
                    47  1.306873256232000E-002
                    48 -5.893136048779000E-002
                    49  0.000000000000000E+000
                    50 -6.614424421549000E-003
                    51  1.686136178597000E-002
                    52  6.843800892823761E-003
                    53  0.000000000000000E+000
                    54 -1.914019448286000E-004
                    55 -1.007920007566200E-003
                    56  0.000000000000000E+000
                    57 -2.183613556909000E-003
                    58  0.113242563909800     
                    59 -3.002156677301000E-002
                    60  0.000000000000000E+000
                    61 -1.306873256232000E-002
                    62 -5.893136048779000E-002
                    63  0.000000000000000E+000
                    64  6.614424421549000E-003
                    65  1.686136178597000E-002
                    66  6.843800892823761E-003
                    67  0.000000000000000E+000
                    68  1.914019448286000E-004
                    69 -1.007920007566200E-003
                    70  0.000000000000000E+000
                    71  3.900909530515000E-002
                    72 -2.454549717071000E-002
                    73  0.000000000000000E+000
                    74  7.650575468276000E-003
                    75 -6.179350820060000E-004
                    76  3.900909530515000E-002
                    77 -2.454549717071000E-002
                    78  0.000000000000000E+000
                    79 -7.650575468276000E-003
                    80 -6.179350820060000E-004
 Sym= __5_A1_
 Ene=   5.00000000000000     
 Spin= Alpha
 Occup=    1.00000000000000     
                     1 -4.951851646607000E-004
                     2 -0.361321052827400     
                     3  2.075432525190000E-003
                     4  0.000000000000000E+000
                     5  0.000000000000000E+000
                     6  0.117135633906100     
                     7  0.000000000000000E+000
                     8  0.000000000000000E+000
                     9 -5.731700999127000E-003
                    10  6.841346323603607E-003
                    11  0.000000000000000E+000
                    12  0.000000000000000E+000
                    13  1.615678898541400E-003
                    14  0.000000000000000E+000
                    15 -4.032043463763000E-003
                    16  0.230576588172300     
                    17 -7.312704892313000E-002
                    18  0.000000000000000E+000
                    19  2.520035603622000E-002
                    20  0.224521488189500     
                    21  0.000000000000000E+000
                    22 -1.843387195332000E-002
                    23 -7.276967955064000E-002
                    24  9.429147076257775E-003
                    25  0.000000000000000E+000
                    26  2.129293247093000E-002
                    27 -5.060215526236000E-004
                    28  0.000000000000000E+000
                    29 -4.032043463763000E-003
                    30  0.230576588172300     
                    31 -7.312704892313000E-002
                    32  0.000000000000000E+000
                    33 -2.520035603622000E-002
                    34  0.224521488189500     
                    35  0.000000000000000E+000
                    36  1.843387195332000E-002
                    37 -7.276967955064000E-002
                    38  9.429147076257775E-003
                    39  0.000000000000000E+000
                    40 -2.129293247093000E-002
                    41 -5.060215526236000E-004
                    42  0.000000000000000E+000
                    43 -1.622279179702000E-002
                    44  0.535847536537800     
                    45 -0.142956725809300     
                    46  0.000000000000000E+000
                    47  6.166394264986000E-002
                    48 -0.110087629189300     
                    49  0.000000000000000E+000
                    50 -3.295005089767000E-002
                    51  4.682201047242000E-002
                    52  2.792527062364051E-003
                    53  0.000000000000000E+000
                    54  2.369607044959000E-003
                    55 -1.334259604197800E-002
                    56  0.000000000000000E+000
                    57 -1.622279179702000E-002
                    58  0.535847536537800     
                    59 -0.142956725809300     
                    60  0.000000000000000E+000
                    61 -6.166394264986000E-002
                    62 -0.110087629189300     
                    63  0.000000000000000E+000
                    64  3.295005089767000E-002
                    65  4.682201047242000E-002
                    66  2.792527062364051E-003
                    67  0.000000000000000E+000
                    68 -2.369607044959000E-003
                    69 -1.334259604197800E-002
                    70  0.000000000000000E+000
                    71  8.278863730632000E-003
                    72 -1.458309766070000E-002
                    73  0.000000000000000E+000
                    74 -4.334546763238000E-004
                    75  3.261285538994000E-003
                    76  8.278863730632000E-003
                    77 -1.458309766070000E-002
                    78  0.000000000000000E+000
                    79  4.334546763238000E-004
                    80  3.261285538994000E-003
 Sym= __6_A1_
 Ene=   6.00000000000000     
 Spin= Alpha
 Occup=    1.00000000000000     
                     1 -2.053406122370000E-003
                     2 -0.192735477472200     
                     3 -1.993961850956000E-002
                     4  0.000000000000000E+000
                     5  0.000000000000000E+000
                     6 -2.507495016218000E-002
                     7  0.000000000000000E+000
                     8  0.000000000000000E+000
                     9  9.321687878653000E-003
                    10 -4.965028572602090E-003
                    11  0.000000000000000E+000
                    12  0.000000000000000E+000
                    13 -5.159183995620000E-003
                    14  0.000000000000000E+000
                    15 -6.312607490135000E-003
                    16  0.403318015899300     
                    17 -7.348562681359000E-002
                    18  0.000000000000000E+000
                    19 -0.278304069138900     
                    20 -5.399497297548000E-002
                    21  0.000000000000000E+000
                    22  7.095116880658001E-002
                    23  1.334647998802000E-002
                    24  3.133628999833692E-003
                    25  0.000000000000000E+000
                    26  1.135935303517000E-002
                    27  2.575600677732000E-003
                    28  0.000000000000000E+000
                    29 -6.312607490135000E-003
                    30  0.403318015899300     
                    31 -7.348562681359000E-002
                    32  0.000000000000000E+000
                    33  0.278304069138900     
                    34 -5.399497297548000E-002
                    35  0.000000000000000E+000
                    36 -7.095116880658001E-002
                    37  1.334647998802000E-002
                    38  3.133628999833692E-003
                    39  0.000000000000000E+000
                    40 -1.135935303517000E-002
                    41  2.575600677732000E-003
                    42  0.000000000000000E+000
                    43  3.556970700047000E-003
                    44 -0.191403311840600     
                    45  2.466929762909000E-002
                    46  0.000000000000000E+000
                    47 -0.154960436521800     
                    48 -0.141704491607300     
                    49  0.000000000000000E+000
                    50  6.272977285469999E-002
                    51  2.456565312891000E-002
                    52  9.824579949557459E-003
                    53  0.000000000000000E+000
                    54  4.079537956502000E-003
                    55  6.957859070486000E-003
                    56  0.000000000000000E+000
                    57  3.556970700047000E-003
                    58 -0.191403311840600     
                    59  2.466929762909000E-002
                    60  0.000000000000000E+000
                    61  0.154960436521800     
                    62 -0.141704491607300     
                    63  0.000000000000000E+000
                    64 -6.272977285469999E-002
                    65  2.456565312891000E-002
                    66  9.824579949557459E-003
                    67  0.000000000000000E+000
                    68 -4.079537956502000E-003
                    69  6.957859070486000E-003
                    70  0.000000000000000E+000
                    71  0.436989546194100     
                    72 -0.169067283130200     
                    73  0.000000000000000E+000
                    74  2.199727180662000E-002
                    75  1.261290657240000E-002
                    76  0.436989546194100     
                    77 -0.169067283130200     
                    78  0.000000000000000E+000
                    79 -2.199727180662000E-002
                    80  1.261290657240000E-002
 Sym= __7_A1_
 Ene=   7.00000000000000     
 Spin= Alpha
 Occup=    1.00000000000000     
                     1 -4.308846403748000E-003
                     2 -0.237267541631800     
                     3 -3.884316699266000E-002
                     4  0.000000000000000E+000
                     5  0.000000000000000E+000
                     6  0.570263532460900     
                     7  0.000000000000000E+000
                     8  0.000000000000000E+000
                     9 -7.462165914574000E-003
                    10  1.811191033735798E-002
                    11  0.000000000000000E+000
                    12  0.000000000000000E+000
                    13 -1.163726663315200E-003
                    14  0.000000000000000E+000
                    15  2.579079485937000E-003
                    16  0.108058483977900     
                    17 -7.187916265136000E-002
                    18  0.000000000000000E+000
                    19  0.256522083962300     
                    20  6.243697297538000E-002
                    21  0.000000000000000E+000
                    22 -9.826864321275000E-002
                    23 -1.248565887651000E-002
                    24 -1.848335239757735E-002
                    25  0.000000000000000E+000
                    26  5.712630837324001E-004
                    27 -2.193953887888000E-002
                    28  0.000000000000000E+000
                    29  2.579079485937000E-003
                    30  0.108058483977900     
                    31 -7.187916265136000E-002
                    32  0.000000000000000E+000
                    33 -0.256522083962300     
                    34  6.243697297538000E-002