[Molden Format]
[Atoms] AU
  O     1    8     0.0000000000    0.0000000000   -2.1795687800        
  C     2    6     0.0000000000   -2.0691509000   -0.6673545900        
  C     3    6     0.0000000000    2.0691509000   -0.6673545900        
  C     4    6     0.0000000000   -1.2585939800    1.7759837900        
  C     5    6     0.0000000000    1.2585939800    1.7759837900        
  H     6    1     0.0000000000   -3.8777146600   -1.5843680100        
  H     7    1     0.0000000000    3.8777146600   -1.5843680100        
[5D7F]
[GTO]
  1  0
   s     9 1.00
  0.117200D+05  0.710000D-03
  0.175900D+04  0.547000D-02
  0.400800D+03  0.278370D-01
  0.113700D+03  0.104800D+00
  0.370300D+02  0.283062D+00
  0.132700D+02  0.448719D+00
  0.502500D+01  0.270952D+00
  0.101300D+01  0.154580D-01
  0.302300D+00 -0.258500D-02
   s     9 1.00
  0.117200D+05 -0.160000D-03
  0.175900D+04 -0.126300D-02
  0.400800D+03 -0.626700D-02
  0.113700D+03 -0.257160D-01
  0.370300D+02 -0.709240D-01
  0.132700D+02 -0.165411D+00
  0.502500D+01 -0.116955D+00
  0.101300D+01  0.557368D+00
  0.302300D+00  0.572759D+00
   s     1 1.00
  0.302300D+00  0.100000D+01
   p     4 1.00
  0.177000D+02  0.430180D-01
  0.385400D+01  0.228913D+00
  0.104600D+01  0.508728D+00
  0.275300D+00  0.460531D+00
   p     1 1.00
  0.275300D+00  0.100000D+01
   d     1 1.00
  0.118500D+01  0.100000D+01
  
  2  0
   s     9 1.00
  0.666500D+04  0.692000D-03
  0.100000D+04  0.532900D-02
  0.228000D+03  0.270770D-01
  0.647100D+02  0.101718D+00
  0.210600D+02  0.274740D+00
  0.749500D+01  0.448564D+00
  0.279700D+01  0.285074D+00
  0.521500D+00  0.152040D-01
  0.159600D+00 -0.319100D-02
   s     9 1.00
  0.666500D+04 -0.146000D-03
  0.100000D+04 -0.115400D-02
  0.228000D+03 -0.572500D-02
  0.647100D+02 -0.233120D-01
  0.210600D+02 -0.639550D-01
  0.749500D+01 -0.149981D+00
  0.279700D+01 -0.127262D+00
  0.521500D+00  0.544529D+00
  0.159600D+00  0.580496D+00
   s     1 1.00
  0.159600D+00  0.100000D+01
   p     4 1.00
  0.943900D+01  0.381090D-01
  0.200200D+01  0.209480D+00
  0.545600D+00  0.508557D+00
  0.151700D+00  0.468842D+00
   p     1 1.00
  0.151700D+00  0.100000D+01
   d     1 1.00
  0.550000D+00  0.100000D+01
  
  3  0
   s     9 1.00
  0.666500D+04  0.692000D-03
  0.100000D+04  0.532900D-02
  0.228000D+03  0.270770D-01
  0.647100D+02  0.101718D+00
  0.210600D+02  0.274740D+00
  0.749500D+01  0.448564D+00
  0.279700D+01  0.285074D+00
  0.521500D+00  0.152040D-01
  0.159600D+00 -0.319100D-02
   s     9 1.00
  0.666500D+04 -0.146000D-03
  0.100000D+04 -0.115400D-02
  0.228000D+03 -0.572500D-02
  0.647100D+02 -0.233120D-01
  0.210600D+02 -0.639550D-01
  0.749500D+01 -0.149981D+00
  0.279700D+01 -0.127262D+00
  0.521500D+00  0.544529D+00
  0.159600D+00  0.580496D+00
   s     1 1.00
  0.159600D+00  0.100000D+01
   p     4 1.00
  0.943900D+01  0.381090D-01
  0.200200D+01  0.209480D+00
  0.545600D+00  0.508557D+00
  0.151700D+00  0.468842D+00
   p     1 1.00
  0.151700D+00  0.100000D+01
   d     1 1.00
  0.550000D+00  0.100000D+01
  
  4  0
   s     9 1.00
  0.666500D+04  0.692000D-03
  0.100000D+04  0.532900D-02
  0.228000D+03  0.270770D-01
  0.647100D+02  0.101718D+00
  0.210600D+02  0.274740D+00
  0.749500D+01  0.448564D+00
  0.279700D+01  0.285074D+00
  0.521500D+00  0.152040D-01
  0.159600D+00 -0.319100D-02
   s     9 1.00
  0.666500D+04 -0.146000D-03
  0.100000D+04 -0.115400D-02
  0.228000D+03 -0.572500D-02
  0.647100D+02 -0.233120D-01
  0.210600D+02 -0.639550D-01
  0.749500D+01 -0.149981D+00
  0.279700D+01 -0.127262D+00
  0.521500D+00  0.544529D+00
  0.159600D+00  0.580496D+00
   s     1 1.00
  0.159600D+00  0.100000D+01
   p     4 1.00
  0.943900D+01  0.381090D-01
  0.200200D+01  0.209480D+00
  0.545600D+00  0.508557D+00
  0.151700D+00  0.468842D+00
   p     1 1.00
  0.151700D+00  0.100000D+01
   d     1 1.00
  0.550000D+00  0.100000D+01
  
  5  0
   s     9 1.00
  0.666500D+04  0.692000D-03
  0.100000D+04  0.532900D-02
  0.228000D+03  0.270770D-01
  0.647100D+02  0.101718D+00
  0.210600D+02  0.274740D+00
  0.749500D+01  0.448564D+00
  0.279700D+01  0.285074D+00
  0.521500D+00  0.152040D-01
  0.159600D+00 -0.319100D-02
   s     9 1.00
  0.666500D+04 -0.146000D-03
  0.100000D+04 -0.115400D-02
  0.228000D+03 -0.572500D-02
  0.647100D+02 -0.233120D-01
  0.210600D+02 -0.639550D-01
  0.749500D+01 -0.149981D+00
  0.279700D+01 -0.127262D+00
  0.521500D+00  0.544529D+00
  0.159600D+00  0.580496D+00
   s     1 1.00
  0.159600D+00  0.100000D+01
   p     4 1.00
  0.943900D+01  0.381090D-01
  0.200200D+01  0.209480D+00
  0.545600D+00  0.508557D+00
  0.151700D+00  0.468842D+00
   p     1 1.00
  0.151700D+00  0.100000D+01
   d     1 1.00
  0.550000D+00  0.100000D+01
  
  6  0
   s     4 1.00
  0.130100D+02  0.196850D-01
  0.196200D+01  0.137977D+00
  0.444600D+00  0.478148D+00
  0.122000D+00  0.501240D+00
   s     1 1.00
  0.122000D+00  0.100000D+01
   p     1 1.00
  0.727000D+00  0.100000D+01
  
  7  0
   s     4 1.00
  0.130100D+02  0.196850D-01
  0.196200D+01  0.137977D+00
  0.444600D+00  0.478148D+00
  0.122000D+00  0.501240D+00
   s     1 1.00
  0.122000D+00  0.100000D+01
   p     1 1.00
  0.727000D+00  0.100000D+01
  
[MO]
 Sym= __1_A1_
 Ene=  0.000000000000000E+000
 Spin= Alpha
 Occup=    2.00000000000000     
                     1   1.00089256105046     
                     2  4.104745623903466E-003
                     3 -6.336279188097916E-003
                     4  0.000000000000000E+000
                     5  0.000000000000000E+000
                     6  2.179535509716050E-003
                     7  0.000000000000000E+000
                     8  0.000000000000000E+000
                     9 -2.903587185669697E-003
                    10  1.570670982103070E-005
                    11  0.000000000000000E+000
                    12  0.000000000000000E+000
                    13  8.604561282269922E-005
                    14  0.000000000000000E+000
                    15  1.479734443520309E-004
                    16  5.509809005225186E-004
                    17  1.982206171876263E-003
                    18  0.000000000000000E+000
                    19  3.422814461866057E-004
                    20 -3.066339018535643E-004
                    21  0.000000000000000E+000
                    22  1.192828461125917E-003
                    23  3.302137766585121E-004
                    24  4.870240381775851E-005
                    25  0.000000000000000E+000
                    26  3.224857252958271E-004
                    27 -7.357191977926195E-005
                    28  0.000000000000000E+000
                    29  1.479734443520309E-004
                    30  5.509809005225186E-004
                    31  1.982206171876263E-003
                    32  0.000000000000000E+000
                    33 -3.422814461866057E-004
                    34 -3.066339018535643E-004
                    35  0.000000000000000E+000
                    36 -1.192828461125917E-003
                    37  3.302137766585121E-004
                    38  4.870240381775851E-005
                    39  0.000000000000000E+000
                    40 -3.224857252958271E-004
                    41 -7.357191977926195E-005
                    42  0.000000000000000E+000
                    43 -3.473653399035927E-005
                    44 -1.493681648482624E-004
                    45 -1.023852945849296E-003
                    46  0.000000000000000E+000
                    47  4.919527277573985E-005
                    48  2.963920523366025E-004
                    49  0.000000000000000E+000
                    50 -1.820787555120142E-004
                    51  3.898422010991389E-004
                    52 -5.821241014238481E-005
                    53  0.000000000000000E+000
                    54 -1.037024955130542E-005
                    55 -7.837613898822118E-005
                    56  0.000000000000000E+000
                    57 -3.473653399035927E-005
                    58 -1.493681648482624E-004
                    59 -1.023852945849296E-003
                    60  0.000000000000000E+000
                    61 -4.919527277573985E-005
                    62  2.963920523366025E-004
                    63  0.000000000000000E+000
                    64  1.820787555120142E-004
                    65  3.898422010991389E-004
                    66 -5.821241014238481E-005
                    67  0.000000000000000E+000
                    68  1.037024955130542E-005
                    69 -7.837613898822118E-005
                    70  0.000000000000000E+000
                    71 -3.619463782208187E-004
                    72  4.253486340221111E-004
                    73  0.000000000000000E+000
                    74 -2.171548242391773E-004
                    75  5.017620765475945E-005
                    76 -3.619463782208187E-004
                    77  4.253486340221111E-004
                    78  0.000000000000000E+000
                    79  2.171548242391773E-004
                    80  5.017620765475945E-005
 Sym= __2_A1_
 Ene=  0.000000000000000E+000
 Spin= Alpha
 Occup=    2.00000000000000     
                     1  3.958323397731306E-004
                     2  2.233212365296455E-003
                     3 -4.152747365707163E-003
                     4  0.000000000000000E+000
                     5  0.000000000000000E+000
                     6  3.452840523493769E-004
                     7  0.000000000000000E+000
                     8  0.000000000000000E+000
                     9 -1.992206971833894E-003
                    10 -2.012684993843398E-004
                    11  0.000000000000000E+000
                    12  0.000000000000000E+000
                    13  3.314646670859460E-004
                    14  0.000000000000000E+000
                    15  0.707931389845957     
                    16  5.563679541152456E-003
                    17 -3.386732622700314E-003
                    18  0.000000000000000E+000
                    19  1.279335161573535E-003
                    20 -5.949346963363382E-004
                    21  0.000000000000000E+000
                    22  7.623766576232292E-004
                    23  6.797078157256491E-004
                    24  7.633562153664879E-005
                    25  0.000000000000000E+000
                    26  2.125125655577988E-004
                    27 -6.141190897427308E-004
                    28  0.000000000000000E+000
                    29  0.707931389845957     
                    30  5.563679541152456E-003
                    31 -3.386732622700314E-003
                    32  0.000000000000000E+000
                    33 -1.279335161573535E-003
                    34 -5.949346963363382E-004
                    35  0.000000000000000E+000
                    36 -7.623766576232292E-004
                    37  6.797078157256491E-004
                    38  7.633562153664879E-005
                    39  0.000000000000000E+000
                    40 -2.125125655577988E-004
                    41 -6.141190897427308E-004
                    42  0.000000000000000E+000
                    43  9.388068022888482E-003
                    44  3.081294808918853E-006
                    45 -3.375339782003988E-004
                    46  0.000000000000000E+000
                    47  6.792943875641369E-005
                    48  3.061545875546239E-004
                    49  0.000000000000000E+000
                    50 -4.243218539734692E-004
                    51  1.745270046737268E-004
                    52 -3.076036815948381E-004
                    53  0.000000000000000E+000
                    54  8.229922273994734E-005
                    55  9.946588737415367E-005
                    56  0.000000000000000E+000
                    57  9.388068022888482E-003
                    58  3.081294808918853E-006
                    59 -3.375339782003988E-004
                    60  0.000000000000000E+000
                    61 -6.792943875641369E-005
                    62  3.061545875546239E-004
                    63  0.000000000000000E+000
                    64  4.243218539734692E-004
                    65  1.745270046737268E-004
                    66 -3.076036815948381E-004
                    67  0.000000000000000E+000
                    68 -8.229922273994734E-005
                    69  9.946588737415367E-005
                    70  0.000000000000000E+000
                    71 -4.175615035557069E-004
                    72  1.571910320168732E-003
                    73  0.000000000000000E+000
                    74 -3.407193488602658E-004
                    75 -6.957134585646656E-005
                    76 -4.175615035557069E-004
                    77  1.571910320168732E-003
                    78  0.000000000000000E+000
                    79  3.407193488602658E-004
                    80 -6.957134585646656E-005
 Sym= __3_A1_
 Ene=  0.000000000000000E+000
 Spin= Alpha
 Occup=    2.00000000000000     
                     1  1.484507204752459E-004
                     2  3.600242163949526E-004
                     3 -1.671817200656257E-003
                     4  0.000000000000000E+000
                     5  0.000000000000000E+000
                     6 -2.192088632010452E-004
                     7  0.000000000000000E+000
                     8  0.000000000000000E+000
                     9 -7.420804822250881E-004
                    10  2.416351816916031E-005
                    11  0.000000000000000E+000
                    12  0.000000000000000E+000
                    13 -2.903442588650300E-005
                    14  0.000000000000000E+000
                    15 -9.817455568764618E-003
                    16 -4.990464759435985E-004
                    17  4.438508693451115E-003
                    18  0.000000000000000E+000
                    19  1.282768584907947E-004
                    20  1.598519362183096E-005
                    21  0.000000000000000E+000
                    22  1.634091769193059E-003
                    23  2.167770034590705E-003
                    24  9.529036082074880E-006
                    25  0.000000000000000E+000
                    26  1.452773709225351E-004
                    27 -4.814183448727740E-005
                    28  0.000000000000000E+000
                    29 -9.817455568764618E-003
                    30 -4.990464759435985E-004
                    31  4.438508693451115E-003
                    32  0.000000000000000E+000
                    33 -1.282768584907947E-004
                    34  1.598519362183096E-005
                    35  0.000000000000000E+000
                    36 -1.634091769193059E-003
                    37  2.167770034590705E-003
                    38  9.529036082074880E-006
                    39  0.000000000000000E+000
                    40 -1.452773709225351E-004
                    41 -4.814183448727740E-005
                    42  0.000000000000000E+000
                    43  0.707890821781648     
                    44  5.450376034135074E-003
                    45 -8.308084827724889E-003
                    46  0.000000000000000E+000
                    47  1.249197534280042E-003
                    48 -9.023714430783086E-004
                    49  0.000000000000000E+000
                    50 -2.255867422129085E-004
                    51  2.223827463455129E-003
                    52 -2.359199325508386E-004
                    53  0.000000000000000E+000
                    54  4.087511782604930E-005
                    55 -7.615158051241620E-005
                    56  0.000000000000000E+000
                    57  0.707890821781648     
                    58  5.450376034135074E-003
                    59 -8.308084827724889E-003
                    60  0.000000000000000E+000
                    61 -1.249197534280042E-003
                    62 -9.023714430783086E-004
                    63  0.000000000000000E+000
                    64  2.255867422129085E-004
                    65  2.223827463455129E-003
                    66 -2.359199325508386E-004
                    67  0.000000000000000E+000
                    68 -4.087511782604930E-005
                    69 -7.615158051241620E-005
                    70  0.000000000000000E+000
                    71  9.451301395740355E-005
                    72  8.138890344083126E-004
                    73  0.000000000000000E+000
                    74 -8.482885375942350E-006
                    75 -4.134204982030343E-005
                    76  9.451301395740355E-005
                    77  8.138890344083126E-004
                    78  0.000000000000000E+000
                    79  8.482885375942350E-006
                    80 -4.134204982030343E-005
 Sym= __4_A1_
 Ene=  0.000000000000000E+000
 Spin= Alpha
 Occup=    2.00000000000000     
                     1 -1.038458477780815E-002
                     2  0.787094208770199     
                     3 -4.044781589211092E-002
                     4  0.000000000000000E+000
                     5  0.000000000000000E+000
                     6  0.140900226123233     
                     7  0.000000000000000E+000
                     8  0.000000000000000E+000
                     9 -1.944219120885019E-002
                    10  4.277260770011455E-003
                    11  0.000000000000000E+000
                    12  0.000000000000000E+000
                    13 -9.634255098675331E-003
                    14  0.000000000000000E+000
                    15 -1.162731499609693E-002
                    16  0.266045998900504     
                    17 -0.126480774574185     
                    18  0.000000000000000E+000
                    19  0.143918795891689     
                    20 -6.256064235699656E-002
                    21  0.000000000000000E+000
                    22 -6.968041754375866E-002
                    23  1.821894960782899E-002
                    24 -3.556362574171004E-003
                    25  0.000000000000000E+000
                    26 -2.182073104548370E-002
                    27 -1.592514084364722E-002
                    28  0.000000000000000E+000
                    29 -1.162731499609693E-002
                    30  0.266045998900504     
                    31 -0.126480774574185     
                    32  0.000000000000000E+000
                    33 -0.143918795891689     
                    34 -6.256064235699656E-002
                    35  0.000000000000000E+000
                    36  6.968041754375866E-002
                    37  1.821894960782899E-002
                    38 -3.556362574171004E-003
                    39  0.000000000000000E+000
                    40  2.182073104548370E-002
                    41 -1.592514084364722E-002
                    42  0.000000000000000E+000
                    43 -2.361130473579809E-003
                    44  0.109507046761467     
                    45 -2.879509296612067E-002
                    46  0.000000000000000E+000
                    47  2.159452298609248E-002
                    48 -5.816882246985428E-002
                    49  0.000000000000000E+000
                    50 -9.081478767352243E-003
                    51  1.467860088090514E-002
                    52  5.839758808753912E-003
                    53  0.000000000000000E+000
                    54  4.199958095721001E-004
                    55 -1.217246768708589E-003
                    56  0.000000000000000E+000
                    57 -2.361130473579809E-003
                    58  0.109507046761467     
                    59 -2.879509296612067E-002
                    60  0.000000000000000E+000
                    61 -2.159452298609248E-002
                    62 -5.816882246985428E-002
                    63  0.000000000000000E+000
                    64  9.081478767352243E-003
                    65  1.467860088090514E-002
                    66  5.839758808753912E-003
                    67  0.000000000000000E+000
                    68 -4.199958095721001E-004
                    69 -1.217246768708589E-003
                    70  0.000000000000000E+000
                    71  4.060379881569694E-002
                    72 -2.457918620588134E-002
                    73  0.000000000000000E+000
                    74  7.722763781616095E-003
                    75 -5.762772128577406E-004
                    76  4.060379881569694E-002
                    77 -2.457918620588134E-002
                    78  0.000000000000000E+000
                    79 -7.722763781616095E-003
                    80 -5.762772128577406E-004
 Sym= __5_A1_
 Ene=  0.000000000000000E+000
 Spin= Alpha
 Occup=    2.00000000000000     
                     1 -9.402946359649495E-004
                     2 -0.365683510967104     
                     3  1.521437808461644E-003
                     4  0.000000000000000E+000
                     5  0.000000000000000E+000
                     6  8.770281177499803E-002
                     7  0.000000000000000E+000
                     8  0.000000000000000E+000
                     9 -4.837241436663942E-003
                    10  6.284891059301586E-003
                    11  0.000000000000000E+000
                    12  0.000000000000000E+000
                    13  1.111066681298550E-003
                    14  0.000000000000000E+000
                    15 -2.948654601326662E-003
                    16  0.220120555559379     
                    17 -9.192697037441065E-002
                    18  0.000000000000000E+000
                    19  2.794839332543069E-002
                    20  0.206633420979635     
                    21  0.000000000000000E+000
                    22 -2.895318816691363E-002
                    23 -8.118035835259739E-002
                    24  7.287350793318110E-003
                    25  0.000000000000000E+000
                    26  2.663718793224648E-002
                    27 -1.648757801226820E-003
                    28  0.000000000000000E+000
                    29 -2.948654601326662E-003
                    30  0.220120555559379     
                    31 -9.192697037441065E-002
                    32  0.000000000000000E+000
                    33 -2.794839332543069E-002
                    34  0.206633420979635     
                    35  0.000000000000000E+000
                    36  2.895318816691363E-002
                    37 -8.118035835259739E-002
                    38  7.287350793318110E-003
                    39  0.000000000000000E+000
                    40 -2.663718793224648E-002
                    41 -1.648757801226820E-003
                    42  0.000000000000000E+000
                    43 -1.868125372702541E-002
                    44  0.515816380759553     
                    45 -0.144777854835311     
                    46  0.000000000000000E+000
                    47  0.185386470947167     
                    48 -0.153695824871516     
                    49  0.000000000000000E+000
                    50 -5.457741575830935E-002
                    51  3.096842695446004E-002
                    52 -3.021646689037010E-004
                    53  0.000000000000000E+000
                    54 -5.004650088610068E-004
                    55 -1.767947152466262E-002
                    56  0.000000000000000E+000
                    57 -1.868125372702541E-002
                    58  0.515816380759553     
                    59 -0.144777854835311     
                    60  0.000000000000000E+000
                    61 -0.185386470947167     
                    62 -0.153695824871516     
                    63  0.000000000000000E+000
                    64  5.457741575830935E-002
                    65  3.096842695446004E-002
                    66 -3.021646689037010E-004
                    67  0.000000000000000E+000
                    68  5.004650088610068E-004
                    69 -1.767947152466262E-002
                    70  0.000000000000000E+000
                    71  1.827596038078419E-002
                    72 -1.637380082648565E-002
                    73  0.000000000000000E+000
                    74 -1.112421721068791E-003
                    75  2.945969810225747E-003
                    76  1.827596038078419E-002
                    77 -1.637380082648565E-002
                    78  0.000000000000000E+000
                    79  1.112421721068791E-003
                    80  2.945969810225747E-003
 Sym= __6_A1_
 Ene=  0.000000000000000E+000
 Spin= Alpha
 Occup=    2.00000000000000     
                     1 -1.430067491238686E-003
                     2 -0.194896630208922     
                     3 -2.077537125158171E-002
                     4  0.000000000000000E+000
                     5  0.000000000000000E+000
                     6  4.892540229346691E-002
                     7  0.000000000000000E+000
                     8  0.000000000000000E+000
                     9  6.589692004515188E-003
                    10 -2.258544211959935E-003
                    11  0.000000000000000E+000
                    12  0.000000000000000E+000
                    13 -4.147861777345202E-003
                    14  0.000000000000000E+000
                    15 -8.016522236076594E-003
                    16  0.409550355733096     
                    17 -5.994717228274753E-002
                    18  0.000000000000000E+000
                    19 -0.235594906928955     
                    20  3.493871338833672E-003
                    21  0.000000000000000E+000
                    22  6.769056322354604E-002
                    23  1.258167609031905E-002
                    24  5.478972910082294E-003
                    25  0.000000000000000E+000
                    26  4.830975479739916E-003
                    27  3.509334949454464E-003
                    28  0.000000000000000E+000
                    29 -8.016522236076594E-003
                    30  0.409550355733096     
                    31 -5.994717228274753E-002
                    32  0.000000000000000E+000
                    33  0.235594906928955     
                    34  3.493871338833672E-003
                    35  0.000000000000000E+000
                    36 -6.769056322354604E-002
                    37  1.258167609031905E-002
                    38  5.478972910082294E-003
                    39  0.000000000000000E+000
                    40 -4.830975479739916E-003
                    41  3.509334949454464E-003
                    42  0.000000000000000E+000
                    43  3.798908937744509E-003
                    44 -0.166190168260202     
                    45  3.435707010790821E-002
                    46  0.000000000000000E+000
                    47 -0.316214887644409     
                    48 -0.115006528887733     
                    49  0.000000000000000E+000
                    50  8.735239546014460E-002
                    51  4.279284896781132E-002
                    52  1.162844107078284E-002
                    53  0.000000000000000E+000
                    54  7.353730343695784E-003
                    55  1.153385548365024E-002
                    56  0.000000000000000E+000
                    57  3.798908937744509E-003
                    58 -0.166190168260202     
                    59  3.435707010790821E-002
                    60  0.000000000000000E+000
                    61  0.316214887644409     
                    62 -0.115006528887733     
                    63  0.000000000000000E+000
                    64 -8.735239546014460E-002
                    65  4.279284896781132E-002
                    66  1.162844107078284E-002
                    67  0.000000000000000E+000
                    68 -7.353730343695784E-003
                    69  1.153385548365024E-002
                    70  0.000000000000000E+000
                    71  0.375492629827514     
                    72 -0.146306310591193     
                    73  0.000000000000000E+000
                    74  2.017072719029363E-002
                    75  1.165767303134948E-002
                    76  0.375492629827514     
                    77 -0.146306310591193     
                    78  0.000000000000000E+000
                    79 -2.017072719029363E-002
                    80  1.165767303134948E-002
 Sym= __7_A1_
 Ene=  0.000000000000000E+000
 Spin= Alpha
 Occup=    2.00000000000000     
                     1 -2.304412753952692E-003
                     2 -0.169793243016682     
                     3 -3.267619048715326E-002
                     4  0.000000000000000E+000
                     5  0.000000000000000E+000
                     6  0.630663907318733     
                     7  0.000000000000000E+000
                     8  0.000000000000000E+000
                     9 -7.094752221276424E-003
                    10  1.895485890253054E-002
                    11  0.000000000000000E+000
                    12  0.000000000000000E+000
                    13  4.825410868328226E-004
                    14  0.000000000000000E+000
                    15  1.553407044368162E-003
                    16  5.495637678609081E-002
                    17 -2.750381518002957E-002
                    18  0.000000000000000E+000
                    19  0.290688552090013     
                    20  0.100819956884816     
                    21  0.000000000000000E+000
                    22 -8.986685480874722E-002
                    23  2.811472716370054E-003
                    24 -1.417438619388678E-002
                    25  0.000000000000000E+000
                    26 -1.450069749452308E-002
                    27 -1.806841526265753E-002
                    28  0.000000000000000E+000
                    29  1.553407044368162E-003
                    30  5.495637678609081E-002
                    31 -2.750381518002957E-002
                    32  0.000000000000000E+000
                    33 -0.290688552090013     
                    34  0.100819956884816     