[Molden Format]
[Atoms] AU
  O     1    8     0.0000000000    0.0000000000   -2.1795687800        
  C     2    6     0.0000000000   -2.0691509000   -0.6673545900        
  C     3    6     0.0000000000    2.0691509000   -0.6673545900        
  C     4    6     0.0000000000   -1.2585939800    1.7759837900        
  C     5    6     0.0000000000    1.2585939800    1.7759837900        
  H     6    1     0.0000000000   -3.8777146600   -1.5843680100        
  H     7    1     0.0000000000    3.8777146600   -1.5843680100        
[5D7F]
[GTO]
  1  0
   s     9 1.00
  0.117200D+05  0.710000D-03
  0.175900D+04  0.547000D-02
  0.400800D+03  0.278370D-01
  0.113700D+03  0.104800D+00
  0.370300D+02  0.283062D+00
  0.132700D+02  0.448719D+00
  0.502500D+01  0.270952D+00
  0.101300D+01  0.154580D-01
  0.302300D+00 -0.258500D-02
   s     9 1.00
  0.117200D+05 -0.160000D-03
  0.175900D+04 -0.126300D-02
  0.400800D+03 -0.626700D-02
  0.113700D+03 -0.257160D-01
  0.370300D+02 -0.709240D-01
  0.132700D+02 -0.165411D+00
  0.502500D+01 -0.116955D+00
  0.101300D+01  0.557368D+00
  0.302300D+00  0.572759D+00
   s     1 1.00
  0.302300D+00  0.100000D+01
   p     4 1.00
  0.177000D+02  0.430180D-01
  0.385400D+01  0.228913D+00
  0.104600D+01  0.508728D+00
  0.275300D+00  0.460531D+00
   p     1 1.00
  0.275300D+00  0.100000D+01
   d     1 1.00
  0.118500D+01  0.100000D+01
  
  2  0
   s     9 1.00
  0.666500D+04  0.692000D-03
  0.100000D+04  0.532900D-02
  0.228000D+03  0.270770D-01
  0.647100D+02  0.101718D+00
  0.210600D+02  0.274740D+00
  0.749500D+01  0.448564D+00
  0.279700D+01  0.285074D+00
  0.521500D+00  0.152040D-01
  0.159600D+00 -0.319100D-02
   s     9 1.00
  0.666500D+04 -0.146000D-03
  0.100000D+04 -0.115400D-02
  0.228000D+03 -0.572500D-02
  0.647100D+02 -0.233120D-01
  0.210600D+02 -0.639550D-01
  0.749500D+01 -0.149981D+00
  0.279700D+01 -0.127262D+00
  0.521500D+00  0.544529D+00
  0.159600D+00  0.580496D+00
   s     1 1.00
  0.159600D+00  0.100000D+01
   p     4 1.00
  0.943900D+01  0.381090D-01
  0.200200D+01  0.209480D+00
  0.545600D+00  0.508557D+00
  0.151700D+00  0.468842D+00
   p     1 1.00
  0.151700D+00  0.100000D+01
   d     1 1.00
  0.550000D+00  0.100000D+01
  
  3  0
   s     9 1.00
  0.666500D+04  0.692000D-03
  0.100000D+04  0.532900D-02
  0.228000D+03  0.270770D-01
  0.647100D+02  0.101718D+00
  0.210600D+02  0.274740D+00
  0.749500D+01  0.448564D+00
  0.279700D+01  0.285074D+00
  0.521500D+00  0.152040D-01
  0.159600D+00 -0.319100D-02
   s     9 1.00
  0.666500D+04 -0.146000D-03
  0.100000D+04 -0.115400D-02
  0.228000D+03 -0.572500D-02
  0.647100D+02 -0.233120D-01
  0.210600D+02 -0.639550D-01
  0.749500D+01 -0.149981D+00
  0.279700D+01 -0.127262D+00
  0.521500D+00  0.544529D+00
  0.159600D+00  0.580496D+00
   s     1 1.00
  0.159600D+00  0.100000D+01
   p     4 1.00
  0.943900D+01  0.381090D-01
  0.200200D+01  0.209480D+00
  0.545600D+00  0.508557D+00
  0.151700D+00  0.468842D+00
   p     1 1.00
  0.151700D+00  0.100000D+01
   d     1 1.00
  0.550000D+00  0.100000D+01
  
  4  0
   s     9 1.00
  0.666500D+04  0.692000D-03
  0.100000D+04  0.532900D-02
  0.228000D+03  0.270770D-01
  0.647100D+02  0.101718D+00
  0.210600D+02  0.274740D+00
  0.749500D+01  0.448564D+00
  0.279700D+01  0.285074D+00
  0.521500D+00  0.152040D-01
  0.159600D+00 -0.319100D-02
   s     9 1.00
  0.666500D+04 -0.146000D-03
  0.100000D+04 -0.115400D-02
  0.228000D+03 -0.572500D-02
  0.647100D+02 -0.233120D-01
  0.210600D+02 -0.639550D-01
  0.749500D+01 -0.149981D+00
  0.279700D+01 -0.127262D+00
  0.521500D+00  0.544529D+00
  0.159600D+00  0.580496D+00
   s     1 1.00
  0.159600D+00  0.100000D+01
   p     4 1.00
  0.943900D+01  0.381090D-01
  0.200200D+01  0.209480D+00
  0.545600D+00  0.508557D+00
  0.151700D+00  0.468842D+00
   p     1 1.00
  0.151700D+00  0.100000D+01
   d     1 1.00
  0.550000D+00  0.100000D+01
  
  5  0
   s     9 1.00
  0.666500D+04  0.692000D-03
  0.100000D+04  0.532900D-02
  0.228000D+03  0.270770D-01
  0.647100D+02  0.101718D+00
  0.210600D+02  0.274740D+00
  0.749500D+01  0.448564D+00
  0.279700D+01  0.285074D+00
  0.521500D+00  0.152040D-01
  0.159600D+00 -0.319100D-02
   s     9 1.00
  0.666500D+04 -0.146000D-03
  0.100000D+04 -0.115400D-02
  0.228000D+03 -0.572500D-02
  0.647100D+02 -0.233120D-01
  0.210600D+02 -0.639550D-01
  0.749500D+01 -0.149981D+00
  0.279700D+01 -0.127262D+00
  0.521500D+00  0.544529D+00
  0.159600D+00  0.580496D+00
   s     1 1.00
  0.159600D+00  0.100000D+01
   p     4 1.00
  0.943900D+01  0.381090D-01
  0.200200D+01  0.209480D+00
  0.545600D+00  0.508557D+00
  0.151700D+00  0.468842D+00
   p     1 1.00
  0.151700D+00  0.100000D+01
   d     1 1.00
  0.550000D+00  0.100000D+01
  
  6  0
   s     4 1.00
  0.130100D+02  0.196850D-01
  0.196200D+01  0.137977D+00
  0.444600D+00  0.478148D+00
  0.122000D+00  0.501240D+00
   s     1 1.00
  0.122000D+00  0.100000D+01
   p     1 1.00
  0.727000D+00  0.100000D+01
  
  7  0
   s     4 1.00
  0.130100D+02  0.196850D-01
  0.196200D+01  0.137977D+00
  0.444600D+00  0.478148D+00
  0.122000D+00  0.501240D+00
   s     1 1.00
  0.122000D+00  0.100000D+01
   p     1 1.00
  0.727000D+00  0.100000D+01
  
[MO]
 Sym= __1_A1_
 Ene=   1.00000000000000     
 Spin= Alpha
 Occup=    1.00000000000000     
                     1   1.00089256042337     
                     2  4.104827837648583E-003
                     3 -6.336280642386461E-003
                     4  0.000000000000000E+000
                     5  0.000000000000000E+000
                     6  2.179519453868646E-003
                     7  0.000000000000000E+000
                     8  0.000000000000000E+000
                     9 -2.903589118175792E-003
                    10  1.570641450185765E-005
                    11  0.000000000000000E+000
                    12  0.000000000000000E+000
                    13  8.604508966662578E-005
                    14  0.000000000000000E+000
                    15  1.479731231228520E-004
                    16  5.509850606397254E-004
                    17  1.982201566961384E-003
                    18  0.000000000000000E+000
                    19  3.422903192409759E-004
                    20 -3.066399287030400E-004
                    21  0.000000000000000E+000
                    22  1.192825387234365E-003
                    23  3.302153476415821E-004
                    24  4.870260493547938E-005
                    25  0.000000000000000E+000
                    26  3.224833514637808E-004
                    27 -7.357239984847361E-005
                    28  0.000000000000000E+000
                    29  1.479731231228520E-004
                    30  5.509850606397254E-004
                    31  1.982201566961384E-003
                    32  0.000000000000000E+000
                    33 -3.422903192409759E-004
                    34 -3.066399287030400E-004
                    35  0.000000000000000E+000
                    36 -1.192825387234365E-003
                    37  3.302153476415821E-004
                    38  4.870260493547938E-005
                    39  0.000000000000000E+000
                    40 -3.224833514637808E-004
                    41 -7.357239984847361E-005
                    42  0.000000000000000E+000
                    43 -3.473639128932398E-005
                    44 -1.493701298414288E-004
                    45 -1.023850878944447E-003
                    46  0.000000000000000E+000
                    47  4.919373178035075E-005
                    48  2.963919842895829E-004
                    49  0.000000000000000E+000
                    50 -1.820790145089990E-004
                    51  3.898416703104099E-004
                    52 -5.821215212111889E-005
                    53  0.000000000000000E+000
                    54 -1.037024690089504E-005
                    55 -7.837589039586769E-005
                    56  0.000000000000000E+000
                    57 -3.473639128932398E-005
                    58 -1.493701298414288E-004
                    59 -1.023850878944447E-003
                    60  0.000000000000000E+000
                    61 -4.919373178035075E-005
                    62  2.963919842895829E-004
                    63  0.000000000000000E+000
                    64  1.820790145089990E-004
                    65  3.898416703104099E-004
                    66 -5.821215212111889E-005
                    67  0.000000000000000E+000
                    68  1.037024690089504E-005
                    69 -7.837589039586769E-005
                    70  0.000000000000000E+000
                    71 -3.619502865388164E-004
                    72  4.253498706901588E-004
                    73  0.000000000000000E+000
                    74 -2.171545599958797E-004
                    75  5.017613181074291E-005
                    76 -3.619502865388164E-004
                    77  4.253498706901588E-004
                    78  0.000000000000000E+000
                    79  2.171545599958797E-004
                    80  5.017613181074291E-005
 Sym= __2_A1_
 Ene=   2.00000000000000     
 Spin= Alpha
 Occup=    1.00000000000000     
                     1  3.958320184363262E-004
                     2  2.233200551894385E-003
                     3 -4.152741371730472E-003
                     4  0.000000000000000E+000
                     5  0.000000000000000E+000
                     6  3.452655128219710E-004
                     7  0.000000000000000E+000
                     8  0.000000000000000E+000
                     9 -1.992205921194278E-003
                    10 -2.012687228635138E-004
                    11  0.000000000000000E+000
                    12  0.000000000000000E+000
                    13  3.314654230531542E-004
                    14  0.000000000000000E+000
                    15  0.707931408530678     
                    16  5.563651581489615E-003
                    17 -3.386732512293919E-003
                    18  0.000000000000000E+000
                    19  1.279340413958606E-003
                    20 -5.949259383146169E-004
                    21  0.000000000000000E+000
                    22  7.623742424315446E-004
                    23  6.797010350913316E-004
                    24  7.633601074866782E-005
                    25  0.000000000000000E+000
                    26  2.125124774498302E-004
                    27 -6.141181684773104E-004
                    28  0.000000000000000E+000
                    29  0.707931408530678     
                    30  5.563651581489615E-003
                    31 -3.386732512293919E-003
                    32  0.000000000000000E+000
                    33 -1.279340413958606E-003
                    34 -5.949259383146169E-004
                    35  0.000000000000000E+000
                    36 -7.623742424315446E-004
                    37  6.797010350913316E-004
                    38  7.633601074866782E-005
                    39  0.000000000000000E+000
                    40 -2.125124774498302E-004
                    41 -6.141181684773104E-004
                    42  0.000000000000000E+000
                    43  9.386773348396014E-003
                    44  3.068237470595765E-006
                    45 -3.375168883562492E-004
                    46  0.000000000000000E+000
                    47  6.792746206699799E-005
                    48  3.061581865003163E-004
                    49  0.000000000000000E+000
                    50 -4.243222617254966E-004
                    51  1.745219576605161E-004
                    52 -3.076035535925998E-004
                    53  0.000000000000000E+000
                    54  8.229881625007735E-005
                    55  9.946605873183253E-005
                    56  0.000000000000000E+000
                    57  9.386773348396014E-003
                    58  3.068237470595765E-006
                    59 -3.375168883562492E-004
                    60  0.000000000000000E+000
                    61 -6.792746206699799E-005
                    62  3.061581865003163E-004
                    63  0.000000000000000E+000
                    64  4.243222617254966E-004
                    65  1.745219576605161E-004
                    66 -3.076035535925998E-004
                    67  0.000000000000000E+000
                    68 -8.229881625007735E-005
                    69  9.946605873183253E-005
                    70  0.000000000000000E+000
                    71 -4.175844944007335E-004
                    72  1.571917703852650E-003
                    73  0.000000000000000E+000
                    74 -3.407206318444181E-004
                    75 -6.957169713161878E-005
                    76 -4.175844944007335E-004
                    77  1.571917703852650E-003
                    78  0.000000000000000E+000
                    79  3.407206318444181E-004
                    80 -6.957169713161878E-005
 Sym= __3_A1_
 Ene=   3.00000000000000     
 Spin= Alpha
 Occup=    1.00000000000000     
                     1  1.484514580589996E-004
                     2  3.600271716548751E-004
                     3 -1.671827726586605E-003
                     4  0.000000000000000E+000
                     5  0.000000000000000E+000
                     6 -2.191690390318264E-004
                     7  0.000000000000000E+000
                     8  0.000000000000000E+000
                     9 -7.420849130204292E-004
                    10  2.416427177747405E-005
                    11  0.000000000000000E+000
                    12  0.000000000000000E+000
                    13 -2.903383148984714E-005
                    14  0.000000000000000E+000
                    15 -9.816160784517455E-003
                    16 -4.990250239556584E-004
                    17  4.438501709953804E-003
                    18  0.000000000000000E+000
                    19  1.282933342508367E-004
                    20  1.599123733889584E-005
                    21  0.000000000000000E+000
                    22  1.634090119219449E-003
                    23  2.167773111423659E-003
                    24  9.528452632788175E-006
                    25  0.000000000000000E+000
                    26  1.452756392740190E-004
                    27 -4.814388591312520E-005
                    28  0.000000000000000E+000
                    29 -9.816160784517455E-003
                    30 -4.990250239556584E-004
                    31  4.438501709953804E-003
                    32  0.000000000000000E+000
                    33 -1.282933342508367E-004
                    34  1.599123733889584E-005
                    35  0.000000000000000E+000
                    36 -1.634090119219449E-003
                    37  2.167773111423659E-003
                    38  9.528452632788175E-006
                    39  0.000000000000000E+000
                    40 -1.452756392740190E-004
                    41 -4.814388591312520E-005
                    42  0.000000000000000E+000
                    43  0.707890840265481     
                    44  5.450334746023725E-003
                    45 -8.308076195915377E-003
                    46  0.000000000000000E+000
                    47  1.249149757994253E-003
                    48 -9.023847591352396E-004
                    49  0.000000000000000E+000
                    50 -2.255755774792767E-004
                    51  2.223834115826366E-003
                    52 -2.359186154284498E-004
                    53  0.000000000000000E+000
                    54  4.087517242650921E-005
                    55 -7.614910135274884E-005
                    56  0.000000000000000E+000
                    57  0.707890840265481     
                    58  5.450334746023725E-003
                    59 -8.308076195915377E-003
                    60  0.000000000000000E+000
                    61 -1.249149757994253E-003
                    62 -9.023847591352396E-004
                    63  0.000000000000000E+000
                    64  2.255755774792767E-004
                    65  2.223834115826366E-003
                    66 -2.359186154284498E-004
                    67  0.000000000000000E+000
                    68 -4.087517242650921E-005
                    69 -7.614910135274884E-005
                    70  0.000000000000000E+000
                    71  9.450192306006445E-005
                    72  8.138943427028159E-004
                    73  0.000000000000000E+000
                    74 -8.483539681727096E-006
                    75 -4.134259594610729E-005
                    76  9.450192306006445E-005
                    77  8.138943427028159E-004
                    78  0.000000000000000E+000
                    79  8.483539681727096E-006
                    80 -4.134259594610729E-005
 Sym= __4_A1_
 Ene=   4.00000000000000     
 Spin= Alpha
 Occup=    1.00000000000000     
                     1 -1.038467872209616E-002
                     2  0.787090041561434     
                     3 -4.044793208438114E-002
                     4  0.000000000000000E+000
                     5  0.000000000000000E+000
                     6  0.140902498091034     
                     7  0.000000000000000E+000
                     8  0.000000000000000E+000
                     9 -1.944219849114322E-002
                    10  4.277341126920332E-003
                    11  0.000000000000000E+000
                    12  0.000000000000000E+000
                    13 -9.634263433362714E-003
                    14  0.000000000000000E+000
                    15 -1.162733418593899E-002
                    16  0.266049131203530     
                    17 -0.126481805107925     
                    18  0.000000000000000E+000
                    19  0.143918818464888     
                    20 -6.255898847066288E-002
                    21  0.000000000000000E+000
                    22 -6.968065509669025E-002
                    23  1.821836265494672E-002
                    24 -3.556326923812970E-003
                    25  0.000000000000000E+000
                    26 -2.182050025713433E-002
                    27 -1.592518880528270E-002
                    28  0.000000000000000E+000
                    29 -1.162733418593899E-002
                    30  0.266049131203530     
                    31 -0.126481805107925     
                    32  0.000000000000000E+000
                    33 -0.143918818464888     
                    34 -6.255898847066288E-002
                    35  0.000000000000000E+000
                    36  6.968065509669025E-002
                    37  1.821836265494672E-002
                    38 -3.556326923812970E-003
                    39  0.000000000000000E+000
                    40  2.182050025713433E-002
                    41 -1.592518880528270E-002
                    42  0.000000000000000E+000
                    43 -2.361280523741189E-003
                    44  0.109510926238039     
                    45 -2.879628148793230E-002
                    46  0.000000000000000E+000
                    47  2.159531319941762E-002
                    48 -5.817044057365461E-002
                    49  0.000000000000000E+000
                    50 -9.081707095226267E-003
                    51  1.467901481186838E-002
                    52  5.839793986974891E-003
                    53  0.000000000000000E+000
                    54  4.200043509713611E-004
                    55 -1.217365313890998E-003
                    56  0.000000000000000E+000
                    57 -2.361280523741189E-003
                    58  0.109510926238039     
                    59 -2.879628148793230E-002
                    60  0.000000000000000E+000
                    61 -2.159531319941762E-002
                    62 -5.817044057365461E-002
                    63  0.000000000000000E+000
                    64  9.081707095226267E-003
                    65  1.467901481186838E-002
                    66  5.839793986974891E-003
                    67  0.000000000000000E+000
                    68 -4.200043509713611E-004
                    69 -1.217365313890998E-003
                    70  0.000000000000000E+000
                    71  4.060480473214548E-002
                    72 -2.457967470081324E-002
                    73  0.000000000000000E+000
                    74  7.722802311573322E-003
                    75 -5.762378932965325E-004
                    76  4.060480473214548E-002
                    77 -2.457967470081324E-002
                    78  0.000000000000000E+000
                    79 -7.722802311573322E-003
                    80 -5.762378932965325E-004
 Sym= __5_A1_
 Ene=   5.00000000000000     
 Spin= Alpha
 Occup=    1.00000000000000     
                     1 -9.401657146561154E-004
                     2 -0.365690914110808     
                     3  1.521782734636143E-003
                     4  0.000000000000000E+000
                     5  0.000000000000000E+000
                     6  8.770143965204392E-002
                     7  0.000000000000000E+000
                     8  0.000000000000000E+000
                     9 -4.837253188828767E-003
                    10  6.284904472104389E-003
                    11  0.000000000000000E+000
                    12  0.000000000000000E+000
                    13  1.111192129719080E-003
                    14  0.000000000000000E+000
                    15 -2.948568886988945E-003
                    16  0.220119531878225     
                    17 -9.192605282249122E-002
                    18  0.000000000000000E+000
                    19  2.794774483570494E-002
                    20  0.206636523524044     
                    21  0.000000000000000E+000
                    22 -2.895255950446049E-002
                    23 -8.118109556988656E-002
                    24  7.287486002300631E-003
                    25  0.000000000000000E+000
                    26  2.663733313020518E-002
                    27 -1.648576593137071E-003
                    28  0.000000000000000E+000
                    29 -2.948568886988945E-003
                    30  0.220119531878225     
                    31 -9.192605282249122E-002
                    32  0.000000000000000E+000
                    33 -2.794774483570494E-002
                    34  0.206636523524044     
                    35  0.000000000000000E+000
                    36  2.895255950446049E-002
                    37 -8.118109556988656E-002
                    38  7.287486002300631E-003
                    39  0.000000000000000E+000
                    40 -2.663733313020518E-002
                    41 -1.648576593137071E-003
                    42  0.000000000000000E+000
                    43 -1.868117387355302E-002
                    44  0.515814294297259     
                    45 -0.144777295493910     
                    46  0.000000000000000E+000
                    47  0.185382156246965     
                    48 -0.153697664560573     
                    49  0.000000000000000E+000
                    50 -5.457643402095787E-002
                    51  3.096902045659386E-002
                    52 -3.020449629002005E-004
                    53  0.000000000000000E+000
                    54 -5.004698104283916E-004
                    55 -1.767932591068588E-002
                    56  0.000000000000000E+000
                    57 -1.868117387355302E-002
                    58  0.515814294297259     
                    59 -0.144777295493910     
                    60  0.000000000000000E+000
                    61 -0.185382156246965     
                    62 -0.153697664560573     
                    63  0.000000000000000E+000
                    64  5.457643402095787E-002
                    65  3.096902045659386E-002
                    66 -3.020449629002005E-004
                    67  0.000000000000000E+000
                    68  5.004698104283916E-004
                    69 -1.767932591068588E-002
                    70  0.000000000000000E+000
                    71  1.827446186053731E-002
                    72 -1.637331343998214E-002
                    73  0.000000000000000E+000
                    74 -1.112513967386248E-003
                    75  2.945987971479455E-003
                    76  1.827446186053731E-002
                    77 -1.637331343998214E-002
                    78  0.000000000000000E+000
                    79  1.112513967386248E-003
                    80  2.945987971479455E-003
 Sym= __6_A1_
 Ene=   6.00000000000000     
 Spin= Alpha
 Occup=    1.00000000000000     
                     1 -1.429938571946781E-003
                     2 -0.194891304278499     
                     3 -2.077411283813070E-002
                     4  0.000000000000000E+000
                     5  0.000000000000000E+000
                     6  4.890278380987678E-002
                     7  0.000000000000000E+000
                     8  0.000000000000000E+000
                     9  6.589883983934267E-003
                    10 -2.259197917264747E-003
                    11  0.000000000000000E+000
                    12  0.000000000000000E+000
                    13 -4.147827079927608E-003
                    14  0.000000000000000E+000
                    15 -8.016507688674231E-003
                    16  0.409546971022816     
                    17 -5.994558285418015E-002
                    18  0.000000000000000E+000
                    19 -0.235604578443203     
                    20  3.491273938821890E-003
                    21  0.000000000000000E+000
                    22  6.769381437768948E-002
                    23  1.258146197580874E-002
                    24  5.479494556778145E-003
                    25  0.000000000000000E+000
                    26  4.831400765529814E-003
                    27  3.510020672035342E-003
                    28  0.000000000000000E+000
                    29 -8.016507688674231E-003
                    30  0.409546971022816     
                    31 -5.994558285418015E-002
                    32  0.000000000000000E+000
                    33  0.235604578443203     
                    34  3.491273938821890E-003
                    35  0.000000000000000E+000
                    36 -6.769381437768948E-002
                    37  1.258146197580874E-002
                    38  5.479494556778145E-003
                    39  0.000000000000000E+000
                    40 -4.831400765529814E-003
                    41  3.510020672035342E-003
                    42  0.000000000000000E+000
                    43  3.798774010837086E-003
                    44 -0.166186028551523     
                    45  3.435696466303279E-002
                    46  0.000000000000000E+000
                    47 -0.316208122261479     
                    48 -0.115002469074105     
                    49  0.000000000000000E+000
                    50  8.735071923809810E-002
                    51  4.279100904962141E-002
                    52  1.162801002236603E-002
                    53  0.000000000000000E+000
                    54  7.353880692915605E-003
                    55  1.153355164159168E-002
                    56  0.000000000000000E+000
                    57  3.798774010837086E-003
                    58 -0.166186028551523     
                    59  3.435696466303279E-002
                    60  0.000000000000000E+000
                    61  0.316208122261479     
                    62 -0.115002469074105     
                    63  0.000000000000000E+000
                    64 -8.735071923809810E-002
                    65  4.279100904962141E-002
                    66  1.162801002236603E-002
                    67  0.000000000000000E+000
                    68 -7.353880692915605E-003
                    69  1.153355164159168E-002
                    70  0.000000000000000E+000
                    71  0.375499450370454     
                    72 -0.146308313440466     
                    73  0.000000000000000E+000
                    74  2.017095382199759E-002
                    75  1.165799638177958E-002
                    76  0.375499450370454     
                    77 -0.146308313440466     
                    78  0.000000000000000E+000
                    79 -2.017095382199759E-002
                    80  1.165799638177958E-002
 Sym= __7_A1_
 Ene=   7.00000000000000     
 Spin= Alpha
 Occup=    1.00000000000000     
                     1 -2.304354229533248E-003
                     2 -0.169794865309892     
                     3 -3.267603047177876E-002
                     4  0.000000000000000E+000
                     5  0.000000000000000E+000
                     6  0.630653031085056     
                     7  0.000000000000000E+000
                     8  0.000000000000000E+000
                     9 -7.095182579822175E-003
                    10  1.895466122304310E-002
                    11  0.000000000000000E+000
                    12  0.000000000000000E+000
                    13  4.826177721544842E-004
                    14  0.000000000000000E+000
                    15  1.553156609178660E-003
                    16  5.496693761136271E-002
                    17 -2.750470419675862E-002
                    18  0.000000000000000E+000
                    19  0.290681400932934     
                    20  0.100827377959710     
                    21  0.000000000000000E+000
                    22 -8.986382556691337E-002
                    23  2.809752368598452E-003
                    24 -1.417366778057096E-002
                    25  0.000000000000000E+000
                    26 -1.450064140867166E-002
                    27 -1.806786156356048E-002
                    28  0.000000000000000E+000
                    29  1.553156609178660E-003
                    30  5.496693761136271E-002
                    31 -2.750470419675862E-002
                    32  0.000000000000000E+000
                    33 -0.290681400932934     
                    34  0.100827377959710     